   2   2   0   0
  0.1193074E+02  0.2878939E-09  0.2878939E-09  0.2878939E-09  0.5000000E-15
  1.000000000000000E-004
  CAR 
 unknown system                          
     34.09961778    -58.67407125  301      9.15357773      1.00000000
    -58.674  0.0000E+00  0.0000E+00  0.0000E+00  0.0000E+00
    -58.365  0.0000E+00  0.0000E+00  0.0000E+00  0.0000E+00
    -58.056  0.0000E+00  0.0000E+00  0.0000E+00  0.0000E+00
    -57.746  0.0000E+00  0.0000E+00  0.0000E+00  0.0000E+00
    -57.437  0.0000E+00  0.0000E+00  0.0000E+00  0.0000E+00
    -57.128  0.0000E+00  0.0000E+00  0.0000E+00  0.0000E+00
    -56.819  0.0000E+00  0.0000E+00  0.0000E+00  0.0000E+00
    -56.509  0.0000E+00  0.0000E+00  0.0000E+00  0.0000E+00
    -56.200 -0.1682E-33 -0.1687E-33 -0.5200E-34 -0.5217E-34
    -55.891 -0.7309E-23 -0.7329E-23 -0.2260E-23 -0.2266E-23
    -55.582 -0.2490E-14 -0.2495E-14 -0.7700E-15 -0.7715E-15
    -55.272 -0.6681E-08 -0.6690E-08 -0.2066E-08 -0.2069E-08
    -54.963 -0.1226E-03 -0.1227E-03 -0.3793E-04 -0.3796E-04
    -54.654 -0.4466E-02 -0.4464E-02 -0.1419E-02 -0.1418E-02
    -54.345  0.1429E+00  0.1429E+00  0.4278E-01  0.4278E-01
    -54.035  0.2180E-01  0.2178E-01  0.4952E-01  0.4952E-01
    -53.726 -0.1095E-02 -0.1094E-02  0.4918E-01  0.4918E-01
    -53.417 -0.3797E-06 -0.3793E-06  0.4918E-01  0.4918E-01
    -53.108 -0.8009E-12 -0.7994E-12  0.4918E-01  0.4918E-01
    -52.798  0.0000E+00  0.0000E+00  0.4918E-01  0.4918E-01
    -52.489  0.0000E+00  0.0000E+00  0.4918E-01  0.4918E-01
    -52.180  0.0000E+00  0.0000E+00  0.4918E-01  0.4918E-01
    -51.871  0.0000E+00  0.0000E+00  0.4918E-01  0.4918E-01
    -51.561  0.0000E+00  0.0000E+00  0.4918E-01  0.4918E-01
    -51.252  0.0000E+00  0.0000E+00  0.4918E-01  0.4918E-01
    -50.943  0.0000E+00  0.0000E+00  0.4918E-01  0.4918E-01
    -50.634  0.0000E+00  0.0000E+00  0.4918E-01  0.4918E-01
    -50.324  0.0000E+00  0.0000E+00  0.4918E-01  0.4918E-01
    -50.015  0.0000E+00  0.0000E+00  0.4918E-01  0.4918E-01
    -49.706  0.0000E+00  0.0000E+00  0.4918E-01  0.4918E-01
    -49.397  0.0000E+00  0.0000E+00  0.4918E-01  0.4918E-01
    -49.087  0.0000E+00  0.0000E+00  0.4918E-01  0.4918E-01
    -48.778  0.0000E+00  0.0000E+00  0.4918E-01  0.4918E-01
    -48.469  0.0000E+00  0.0000E+00  0.4918E-01  0.4918E-01
    -48.160  0.0000E+00  0.0000E+00  0.4918E-01  0.4918E-01
    -47.850  0.0000E+00  0.0000E+00  0.4918E-01  0.4918E-01
    -47.541  0.0000E+00  0.0000E+00  0.4918E-01  0.4918E-01
    -47.232  0.0000E+00  0.0000E+00  0.4918E-01  0.4918E-01
    -46.923  0.0000E+00  0.0000E+00  0.4918E-01  0.4918E-01
    -46.613  0.0000E+00  0.0000E+00  0.4918E-01  0.4918E-01
    -46.304  0.0000E+00  0.0000E+00  0.4918E-01  0.4918E-01
    -45.995  0.0000E+00  0.0000E+00  0.4918E-01  0.4918E-01
    -45.686  0.0000E+00  0.0000E+00  0.4918E-01  0.4918E-01
    -45.377  0.0000E+00  0.0000E+00  0.4918E-01  0.4918E-01
    -45.067  0.0000E+00  0.0000E+00  0.4918E-01  0.4918E-01
    -44.758  0.0000E+00  0.0000E+00  0.4918E-01  0.4918E-01
    -44.449  0.0000E+00  0.0000E+00  0.4918E-01  0.4918E-01
    -44.140  0.0000E+00  0.0000E+00  0.4918E-01  0.4918E-01
    -43.830  0.0000E+00  0.0000E+00  0.4918E-01  0.4918E-01
    -43.521  0.0000E+00  0.0000E+00  0.4918E-01  0.4918E-01
    -43.212  0.0000E+00  0.0000E+00  0.4918E-01  0.4918E-01
    -42.903  0.0000E+00  0.0000E+00  0.4918E-01  0.4918E-01
    -42.593  0.0000E+00  0.0000E+00  0.4918E-01  0.4918E-01
    -42.284  0.0000E+00  0.0000E+00  0.4918E-01  0.4918E-01
    -41.975  0.0000E+00  0.0000E+00  0.4918E-01  0.4918E-01
    -41.666  0.0000E+00  0.0000E+00  0.4918E-01  0.4918E-01
    -41.356  0.0000E+00  0.0000E+00  0.4918E-01  0.4918E-01
    -41.047  0.0000E+00  0.0000E+00  0.4918E-01  0.4918E-01
    -40.738  0.0000E+00  0.0000E+00  0.4918E-01  0.4918E-01
    -40.429  0.0000E+00  0.0000E+00  0.4918E-01  0.4918E-01
    -40.119  0.0000E+00  0.0000E+00  0.4918E-01  0.4918E-01
    -39.810  0.0000E+00  0.0000E+00  0.4918E-01  0.4918E-01
    -39.501  0.0000E+00  0.0000E+00  0.4918E-01  0.4918E-01
    -39.192  0.0000E+00  0.0000E+00  0.4918E-01  0.4918E-01
    -38.882  0.0000E+00  0.0000E+00  0.4918E-01  0.4918E-01
    -38.573  0.0000E+00  0.0000E+00  0.4918E-01  0.4918E-01
    -38.264  0.0000E+00  0.0000E+00  0.4918E-01  0.4918E-01
    -37.955  0.0000E+00  0.0000E+00  0.4918E-01  0.4918E-01
    -37.645  0.0000E+00  0.0000E+00  0.4918E-01  0.4918E-01
    -37.336  0.0000E+00  0.0000E+00  0.4918E-01  0.4918E-01
    -37.027  0.0000E+00  0.0000E+00  0.4918E-01  0.4918E-01
    -36.718  0.0000E+00  0.0000E+00  0.4918E-01  0.4918E-01
    -36.408  0.0000E+00  0.0000E+00  0.4918E-01  0.4918E-01
    -36.099  0.0000E+00  0.0000E+00  0.4918E-01  0.4918E-01
    -35.790  0.0000E+00  0.0000E+00  0.4918E-01  0.4918E-01
    -35.481  0.0000E+00  0.0000E+00  0.4918E-01  0.4918E-01
    -35.171  0.0000E+00  0.0000E+00  0.4918E-01  0.4918E-01
    -34.862  0.0000E+00  0.0000E+00  0.4918E-01  0.4918E-01
    -34.553  0.0000E+00  0.0000E+00  0.4918E-01  0.4918E-01
    -34.244  0.0000E+00  0.0000E+00  0.4918E-01  0.4918E-01
    -33.934  0.0000E+00  0.0000E+00  0.4918E-01  0.4918E-01
    -33.625  0.0000E+00  0.0000E+00  0.4918E-01  0.4918E-01
    -33.316  0.0000E+00  0.0000E+00  0.4918E-01  0.4918E-01
    -33.007  0.0000E+00  0.0000E+00  0.4918E-01  0.4918E-01
    -32.697  0.0000E+00  0.0000E+00  0.4918E-01  0.4918E-01
    -32.388  0.0000E+00  0.0000E+00  0.4918E-01  0.4918E-01
    -32.079  0.0000E+00  0.0000E+00  0.4918E-01  0.4918E-01
    -31.770  0.0000E+00  0.0000E+00  0.4918E-01  0.4918E-01
    -31.460  0.0000E+00  0.0000E+00  0.4918E-01  0.4918E-01
    -31.151  0.0000E+00  0.0000E+00  0.4918E-01  0.4918E-01
    -30.842  0.0000E+00  0.0000E+00  0.4918E-01  0.4918E-01
    -30.533  0.0000E+00  0.0000E+00  0.4918E-01  0.4918E-01
    -30.223  0.0000E+00  0.0000E+00  0.4918E-01  0.4918E-01
    -29.914  0.0000E+00  0.0000E+00  0.4918E-01  0.4918E-01
    -29.605  0.0000E+00  0.0000E+00  0.4918E-01  0.4918E-01
    -29.296  0.0000E+00  0.0000E+00  0.4918E-01  0.4918E-01
    -28.986  0.0000E+00  0.0000E+00  0.4918E-01  0.4918E-01
    -28.677  0.0000E+00  0.0000E+00  0.4918E-01  0.4918E-01
    -28.368  0.0000E+00  0.0000E+00  0.4918E-01  0.4918E-01
    -28.059  0.0000E+00  0.0000E+00  0.4918E-01  0.4918E-01
    -27.750  0.0000E+00  0.0000E+00  0.4918E-01  0.4918E-01
    -27.440  0.0000E+00  0.0000E+00  0.4918E-01  0.4918E-01
    -27.131  0.0000E+00  0.0000E+00  0.4918E-01  0.4918E-01
    -26.822  0.0000E+00  0.0000E+00  0.4918E-01  0.4918E-01
    -26.513  0.0000E+00  0.0000E+00  0.4918E-01  0.4918E-01
    -26.203  0.0000E+00  0.0000E+00  0.4918E-01  0.4918E-01
    -25.894  0.0000E+00  0.0000E+00  0.4918E-01  0.4918E-01
    -25.585  0.0000E+00  0.0000E+00  0.4918E-01  0.4918E-01
    -25.276  0.0000E+00  0.0000E+00  0.4918E-01  0.4918E-01
    -24.966  0.0000E+00  0.0000E+00  0.4918E-01  0.4918E-01
    -24.657  0.0000E+00  0.0000E+00  0.4918E-01  0.4918E-01
    -24.348  0.0000E+00  0.0000E+00  0.4918E-01  0.4918E-01
    -24.039  0.0000E+00  0.0000E+00  0.4918E-01  0.4918E-01
    -23.729  0.0000E+00  0.0000E+00  0.4918E-01  0.4918E-01
    -23.420  0.0000E+00  0.0000E+00  0.4918E-01  0.4918E-01
    -23.111  0.0000E+00  0.0000E+00  0.4918E-01  0.4918E-01
    -22.802  0.0000E+00  0.0000E+00  0.4918E-01  0.4918E-01
    -22.492  0.0000E+00  0.0000E+00  0.4918E-01  0.4918E-01
    -22.183  0.0000E+00  0.0000E+00  0.4918E-01  0.4918E-01
    -21.874  0.0000E+00  0.0000E+00  0.4918E-01  0.4918E-01
    -21.565  0.0000E+00  0.0000E+00  0.4918E-01  0.4918E-01
    -21.255  0.0000E+00  0.0000E+00  0.4918E-01  0.4918E-01
    -20.946  0.0000E+00  0.0000E+00  0.4918E-01  0.4918E-01
    -20.637  0.0000E+00  0.0000E+00  0.4918E-01  0.4918E-01
    -20.328  0.0000E+00  0.0000E+00  0.4918E-01  0.4918E-01
    -20.018  0.0000E+00  0.0000E+00  0.4918E-01  0.4918E-01
    -19.709  0.0000E+00  0.0000E+00  0.4918E-01  0.4918E-01
    -19.400  0.0000E+00  0.0000E+00  0.4918E-01  0.4918E-01
    -19.091  0.0000E+00  0.0000E+00  0.4918E-01  0.4918E-01
    -18.781  0.0000E+00  0.0000E+00  0.4918E-01  0.4918E-01
    -18.472  0.0000E+00  0.0000E+00  0.4918E-01  0.4918E-01
    -18.163  0.0000E+00  0.0000E+00  0.4918E-01  0.4918E-01
    -17.854  0.0000E+00  0.0000E+00  0.4918E-01  0.4918E-01
    -17.544  0.0000E+00  0.0000E+00  0.4918E-01  0.4918E-01
    -17.235  0.0000E+00  0.0000E+00  0.4918E-01  0.4918E-01
    -16.926  0.0000E+00  0.0000E+00  0.4918E-01  0.4918E-01
    -16.617  0.0000E+00  0.0000E+00  0.4918E-01  0.4918E-01
    -16.307  0.0000E+00  0.0000E+00  0.4918E-01  0.4918E-01
    -15.998  0.0000E+00  0.0000E+00  0.4918E-01  0.4918E-01
    -15.689  0.0000E+00  0.0000E+00  0.4918E-01  0.4918E-01
    -15.380  0.0000E+00  0.0000E+00  0.4918E-01  0.4918E-01
    -15.070  0.0000E+00  0.0000E+00  0.4918E-01  0.4918E-01
    -14.761  0.0000E+00  0.0000E+00  0.4918E-01  0.4918E-01
    -14.452  0.0000E+00  0.0000E+00  0.4918E-01  0.4918E-01
    -14.143  0.0000E+00  0.0000E+00  0.4918E-01  0.4918E-01
    -13.833  0.0000E+00  0.0000E+00  0.4918E-01  0.4918E-01
    -13.524  0.0000E+00  0.0000E+00  0.4918E-01  0.4918E-01
    -13.215  0.0000E+00  0.0000E+00  0.4918E-01  0.4918E-01
    -12.906  0.0000E+00  0.0000E+00  0.4918E-01  0.4918E-01
    -12.596  0.0000E+00  0.0000E+00  0.4918E-01  0.4918E-01
    -12.287  0.0000E+00  0.0000E+00  0.4918E-01  0.4918E-01
    -11.978  0.0000E+00  0.0000E+00  0.4918E-01  0.4918E-01
    -11.669  0.0000E+00  0.0000E+00  0.4918E-01  0.4918E-01
    -11.359  0.0000E+00  0.0000E+00  0.4918E-01  0.4918E-01
    -11.050  0.0000E+00  0.0000E+00  0.4918E-01  0.4918E-01
    -10.741  0.0000E+00  0.0000E+00  0.4918E-01  0.4918E-01
    -10.432  0.0000E+00  0.0000E+00  0.4918E-01  0.4918E-01
    -10.123  0.0000E+00  0.0000E+00  0.4918E-01  0.4918E-01
     -9.813  0.0000E+00  0.0000E+00  0.4918E-01  0.4918E-01
     -9.504  0.0000E+00  0.0000E+00  0.4918E-01  0.4918E-01
     -9.195  0.0000E+00  0.0000E+00  0.4918E-01  0.4918E-01
     -8.886  0.0000E+00  0.0000E+00  0.4918E-01  0.4918E-01
     -8.576  0.0000E+00  0.0000E+00  0.4918E-01  0.4918E-01
     -8.267  0.0000E+00  0.0000E+00  0.4918E-01  0.4918E-01
     -7.958  0.0000E+00  0.0000E+00  0.4918E-01  0.4918E-01
     -7.649  0.0000E+00  0.0000E+00  0.4918E-01  0.4918E-01
     -7.339  0.0000E+00  0.0000E+00  0.4918E-01  0.4918E-01
     -7.030  0.0000E+00  0.0000E+00  0.4918E-01  0.4918E-01
     -6.721  0.0000E+00  0.0000E+00  0.4918E-01  0.4918E-01
     -6.412  0.0000E+00  0.0000E+00  0.4918E-01  0.4918E-01
     -6.102  0.0000E+00  0.0000E+00  0.4918E-01  0.4918E-01
     -5.793  0.0000E+00  0.0000E+00  0.4918E-01  0.4918E-01
     -5.484  0.0000E+00  0.0000E+00  0.4918E-01  0.4918E-01
     -5.175  0.0000E+00  0.0000E+00  0.4918E-01  0.4918E-01
     -4.865  0.0000E+00  0.0000E+00  0.4918E-01  0.4918E-01
     -4.556  0.0000E+00  0.0000E+00  0.4918E-01  0.4918E-01
     -4.247  0.0000E+00  0.0000E+00  0.4918E-01  0.4918E-01
     -3.938  0.0000E+00  0.0000E+00  0.4918E-01  0.4918E-01
     -3.628 -0.2734E-37 -0.2731E-37  0.4918E-01  0.4918E-01
     -3.319 -0.1080E-26 -0.1079E-26  0.4918E-01  0.4918E-01
     -3.010 -0.3616E-18 -0.3613E-18  0.4918E-01  0.4918E-01
     -2.701 -0.1121E-11 -0.1120E-11  0.4918E-01  0.4918E-01
     -2.391 -0.3249E-07 -0.3248E-07  0.4918E-01  0.4918E-01
     -2.082 -0.6830E-05 -0.6829E-05  0.4918E-01  0.4918E-01
     -1.773  0.1259E-03  0.1259E-03  0.4922E-01  0.4922E-01
     -1.464  0.6699E-03  0.6699E-03  0.4942E-01  0.4942E-01
     -1.154  0.1017E-02  0.1017E-02  0.4974E-01  0.4974E-01
     -0.845  0.1323E-02  0.1323E-02  0.5015E-01  0.5015E-01
     -0.536  0.1485E-02  0.1485E-02  0.5061E-01  0.5061E-01
     -0.227  0.1685E-02  0.1685E-02  0.5113E-01  0.5113E-01
      0.083  0.1932E-02  0.1932E-02  0.5173E-01  0.5173E-01
      0.392  0.2085E-02  0.2085E-02  0.5237E-01  0.5237E-01
      0.701  0.2378E-02  0.2378E-02  0.5311E-01  0.5311E-01
      1.010  0.2390E-02  0.2390E-02  0.5385E-01  0.5385E-01
      1.320  0.2710E-02  0.2710E-02  0.5468E-01  0.5468E-01
      1.629  0.2943E-02  0.2943E-02  0.5559E-01  0.5559E-01
      1.938  0.2917E-02  0.2917E-02  0.5650E-01  0.5650E-01
      2.247  0.3708E-02  0.3708E-02  0.5764E-01  0.5764E-01
      2.557  0.3484E-02  0.3484E-02  0.5872E-01  0.5872E-01
      2.866  0.4053E-02  0.4053E-02  0.5997E-01  0.5997E-01
      3.175  0.4611E-02  0.4611E-02  0.6140E-01  0.6140E-01
      3.484  0.4595E-02  0.4595E-02  0.6282E-01  0.6282E-01
      3.794  0.5565E-02  0.5565E-02  0.6454E-01  0.6454E-01
      4.103  0.5727E-02  0.5727E-02  0.6631E-01  0.6631E-01
      4.412  0.5016E-02  0.5016E-02  0.6786E-01  0.6786E-01
      4.721  0.5556E-02  0.5556E-02  0.6958E-01  0.6958E-01
      5.031  0.6229E-02  0.6229E-02  0.7151E-01  0.7151E-01
      5.340  0.1257E-01  0.1257E-01  0.7540E-01  0.7540E-01
      5.649  0.1434E-01  0.1434E-01  0.7983E-01  0.7983E-01
      5.958  0.1434E-01  0.1434E-01  0.8427E-01  0.8427E-01
      6.268  0.2586E-01  0.2586E-01  0.9226E-01  0.9226E-01
      6.577  0.1982E-01  0.1982E-01  0.9839E-01  0.9839E-01
      6.886  0.2386E-01  0.2386E-01  0.1058E+00  0.1058E+00
      7.195  0.4461E-01  0.4461E-01  0.1196E+00  0.1196E+00
      7.504  0.5485E-01  0.5485E-01  0.1365E+00  0.1365E+00
      7.814  0.2437E-01  0.2437E-01  0.1441E+00  0.1441E+00
      8.123  0.5665E-02  0.5665E-02  0.1458E+00  0.1458E+00
      8.432  0.5438E-02  0.5438E-02  0.1475E+00  0.1475E+00
      8.741  0.1482E-01  0.1482E-01  0.1521E+00  0.1521E+00
      9.051  0.9486E-02  0.9486E-02  0.1550E+00  0.1550E+00
      9.360  0.6378E-02  0.6379E-02  0.1570E+00  0.1570E+00
      9.669  0.5479E-02  0.5479E-02  0.1587E+00  0.1587E+00
      9.978  0.3881E-02  0.3881E-02  0.1599E+00  0.1599E+00
     10.288  0.3859E-02  0.3859E-02  0.1611E+00  0.1611E+00
     10.597  0.2302E-02  0.2302E-02  0.1618E+00  0.1618E+00
     10.906  0.2994E-02  0.2994E-02  0.1627E+00  0.1627E+00
     11.215  0.4526E-02  0.4526E-02  0.1641E+00  0.1641E+00
     11.525  0.5530E-02  0.5530E-02  0.1658E+00  0.1658E+00
     11.834  0.8294E-02  0.8294E-02  0.1684E+00  0.1684E+00
     12.143  0.7338E-02  0.7338E-02  0.1707E+00  0.1707E+00
     12.452  0.6370E-02  0.6370E-02  0.1726E+00  0.1726E+00
     12.762  0.6640E-02  0.6640E-02  0.1747E+00  0.1747E+00
     13.071  0.5739E-02  0.5739E-02  0.1765E+00  0.1765E+00
     13.380  0.6867E-02  0.6867E-02  0.1786E+00  0.1786E+00
     13.689  0.5518E-02  0.5518E-02  0.1803E+00  0.1803E+00
     13.999  0.6590E-02  0.6590E-02  0.1823E+00  0.1823E+00
     14.308  0.7242E-02  0.7242E-02  0.1846E+00  0.1846E+00
     14.617  0.6485E-02  0.6485E-02  0.1866E+00  0.1866E+00
     14.926  0.7901E-02  0.7901E-02  0.1890E+00  0.1890E+00
     15.236  0.6759E-02  0.6759E-02  0.1911E+00  0.1911E+00
     15.545  0.7470E-02  0.7470E-02  0.1934E+00  0.1934E+00
     15.854  0.6685E-02  0.6685E-02  0.1955E+00  0.1955E+00
     16.163  0.6817E-02  0.6817E-02  0.1976E+00  0.1976E+00
     16.473  0.6376E-02  0.6376E-02  0.1996E+00  0.1996E+00
     16.782  0.6704E-02  0.6704E-02  0.2016E+00  0.2016E+00
     17.091  0.5998E-02  0.5998E-02  0.2035E+00  0.2035E+00
     17.400  0.5495E-02  0.5495E-02  0.2052E+00  0.2052E+00
     17.710  0.7794E-02  0.7794E-02  0.2076E+00  0.2076E+00
     18.019  0.5362E-02  0.5362E-02  0.2093E+00  0.2093E+00
     18.328  0.8987E-02  0.8987E-02  0.2120E+00  0.2120E+00
     18.637  0.7950E-02  0.7950E-02  0.2145E+00  0.2145E+00
     18.947  0.6955E-02  0.6956E-02  0.2166E+00  0.2166E+00
     19.256  0.6756E-02  0.6756E-02  0.2187E+00  0.2187E+00
     19.565  0.5618E-02  0.5618E-02  0.2205E+00  0.2205E+00
     19.874  0.5357E-02  0.5357E-02  0.2221E+00  0.2221E+00
     20.184  0.5223E-02  0.5223E-02  0.2237E+00  0.2237E+00
     20.493  0.6733E-02  0.6733E-02  0.2258E+00  0.2258E+00
     20.802  0.6196E-02  0.6196E-02  0.2277E+00  0.2277E+00
     21.111  0.6817E-02  0.6817E-02  0.2298E+00  0.2298E+00
     21.421  0.7442E-02  0.7443E-02  0.2322E+00  0.2322E+00
     21.730  0.6542E-02  0.6542E-02  0.2342E+00  0.2342E+00
     22.039  0.6782E-02  0.6782E-02  0.2363E+00  0.2363E+00
     22.348  0.7119E-02  0.7119E-02  0.2385E+00  0.2385E+00
     22.658  0.8177E-02  0.8177E-02  0.2410E+00  0.2410E+00
     22.967  0.7722E-02  0.7722E-02  0.2434E+00  0.2434E+00
     23.276  0.7381E-02  0.7381E-02  0.2457E+00  0.2457E+00
     23.585  0.6017E-02  0.6017E-02  0.2475E+00  0.2475E+00
     23.895  0.7222E-02  0.7225E-02  0.2498E+00  0.2498E+00
     24.204  0.5394E-02  0.5332E-02  0.2514E+00  0.2514E+00
     24.513  0.7380E-02  0.7434E-02  0.2537E+00  0.2537E+00
     24.822  0.7165E-02  0.7175E-02  0.2559E+00  0.2559E+00
     25.131  0.8817E-02  0.8736E-02  0.2587E+00  0.2586E+00
     25.441  0.4644E-02  0.4740E-02  0.2601E+00  0.2601E+00
     25.750  0.3707E-02  0.3689E-02  0.2612E+00  0.2612E+00
     26.059  0.1675E-02  0.1674E-02  0.2618E+00  0.2618E+00
     26.368  0.8974E-03  0.8975E-03  0.2620E+00  0.2620E+00
     26.678  0.1219E-03  0.1219E-03  0.2621E+00  0.2621E+00
     26.987  0.5076E-04  0.5066E-04  0.2621E+00  0.2621E+00
     27.296  0.2485E-03  0.2504E-03  0.2622E+00  0.2622E+00
     27.605  0.1695E-03  0.1677E-03  0.2622E+00  0.2622E+00
     27.915 -0.3108E-05 -0.3028E-05  0.2622E+00  0.2622E+00
     28.224  0.3859E-04  0.3858E-04  0.2622E+00  0.2622E+00
     28.533  0.8423E-04  0.8457E-04  0.2623E+00  0.2623E+00
     28.842  0.7657E-04  0.7624E-04  0.2623E+00  0.2623E+00
     29.152  0.4825E-05  0.4800E-05  0.2623E+00  0.2623E+00
     29.461  0.3975E-04  0.3979E-04  0.2623E+00  0.2623E+00
     29.770 -0.7389E-06 -0.7363E-06  0.2623E+00  0.2623E+00
     30.079  0.7130E-05  0.7130E-05  0.2623E+00  0.2623E+00
     30.389 -0.1729E-06 -0.1729E-06  0.2623E+00  0.2623E+00
     30.698 -0.7811E-08 -0.7810E-08  0.2623E+00  0.2623E+00
     31.007 -0.5080E-12 -0.5079E-12  0.2623E+00  0.2623E+00
     31.316 -0.2214E-18 -0.2214E-18  0.2623E+00  0.2623E+00
     31.626  0.0000E+00  0.0000E+00  0.2623E+00  0.2623E+00
     31.935  0.0000E+00  0.0000E+00  0.2623E+00  0.2623E+00
     32.244  0.0000E+00  0.0000E+00  0.2623E+00  0.2623E+00
     32.553  0.0000E+00  0.0000E+00  0.2623E+00  0.2623E+00
     32.863  0.0000E+00  0.0000E+00  0.2623E+00  0.2623E+00
     33.172  0.0000E+00  0.0000E+00  0.2623E+00  0.2623E+00
     33.481  0.0000E+00  0.0000E+00  0.2623E+00  0.2623E+00
     33.790  0.0000E+00  0.0000E+00  0.2623E+00  0.2623E+00
     34.100  0.0000E+00  0.0000E+00  0.2623E+00  0.2623E+00
