    2    2   61    2
  0.1193074E+02  0.2878939E-09  0.2878939E-09  0.2878939E-09  0.5000000E-15
  1.000000000000000E-004
  CAR 
 unknown system                          
     19    220     16
 
  0.3742002E-15  0.3742002E-15  0.3742002E-15  0.1457938E-03
    1      -54.436520    -54.436557
    2      -54.436520    -54.436557
    3      -54.436520    -54.436557
    4       -1.888352     -1.888340
    5        5.997456      5.997464
    6        5.997456      5.997464
    7        7.656259      7.656271
    8        7.656259      7.656271
    9        7.656259      7.656271
   10       14.586607     14.586627
   11       14.586607     14.586627
   12       14.586607     14.586627
   13       17.231082     17.231070
   14       17.231082     17.231070
   15       22.649968     22.650000
   16       29.882632     29.882626
 
  0.5263158E-01  0.3742002E-15  0.3742002E-15  0.8747631E-03
    1      -54.437095    -54.437131
    2      -54.436469    -54.436505
    3      -54.436469    -54.436505
    4       -1.837784     -1.837771
    5        5.993846      5.993854
    6        6.009344      6.009352
    7        7.634064      7.634076
    8        7.634065      7.634076
    9        7.658596      7.658607
   10       13.998233     13.998249
   11       14.653786     14.653805
   12       14.653786     14.653805
   13       17.234694     17.234683
   14       17.768038     17.768029
   15       22.828250     22.828282
   16       29.236213     29.236480
 
  0.1052632E+00  0.3742002E-15  0.3742002E-15  0.8747631E-03
    1      -54.438233    -54.438269
    2      -54.436277    -54.436314
    3      -54.436277    -54.436314
    4       -1.686401     -1.686389
    5        5.976251      5.976259
    6        6.043949      6.043957
    7        7.571329      7.571341
    8        7.571329      7.571341
    9        7.665347      7.665358
   10       12.879625     12.879640
   11       14.851757     14.851775
   12       14.851756     14.851775
   13       17.245441     17.245429
   14       18.709040     18.709035
   15       23.390776     23.390806
   16       28.024303     28.024301
 
  0.1578947E+00  0.3742002E-15  0.3742002E-15  0.8747631E-03
    1      -54.440982    -54.441018
    2      -54.436146    -54.436183
    3      -54.436146    -54.436183
    4       -1.435443     -1.435431
    5        5.921526      5.921533
    6        6.098065      6.098073
    7        7.477847      7.477858
    8        7.477847      7.477859
    9        7.675785      7.675796
   10       11.709878     11.709892
   11       15.171051     15.171069
   12       15.171051     15.171069
   13       17.262978     17.262965
   14       19.556779     19.556777
   15       24.369384     24.369411
   16       26.731550     26.731551
 
  0.2105263E+00  0.3742002E-15  0.3742002E-15  0.8747631E-03
    1      -54.443827    -54.443863
    2      -54.435581    -54.435618
    3      -54.435581    -54.435618
    4       -1.086919     -1.086907
    5        5.787001      5.787009
    6        6.166792      6.166800
    7        7.367337      7.367348
    8        7.367337      7.367348
    9        7.688861      7.688873
   10       10.641460     10.641475
   11       15.599286     15.599303
   12       15.599286     15.599303
   13       17.286590     17.286576
   14       20.238841     20.238843
   15       25.460917     25.460921
   16       25.461188     25.460966
 
  0.2631579E+00  0.3742002E-15  0.3742002E-15  0.8747631E-03
    1      -54.447215    -54.447251
    2      -54.435204    -54.435240
    3      -54.435204    -54.435240
    4       -0.643819     -0.643807
    5        5.509449      5.509457
    6        6.242928      6.242937
    7        7.253245      7.253257
    8        7.253245      7.253257
    9        7.703118      7.703130
   10        9.768430      9.768444
   11       16.123719     16.123736
   12       16.123719     16.123736
   13       17.314823     17.314808
   14       20.820930     20.820935
   15       24.241314     24.241320
   16       24.241314     24.241320
 
  0.3157895E+00  0.3742002E-15  0.3742002E-15  0.8747631E-03
    1      -54.450704    -54.450741
    2      -54.434903    -54.434939
    3      -54.434903    -54.434939
    4       -0.110360     -0.110348
    5        5.034651      5.034660
    6        6.318547      6.318556
    7        7.147594      7.147606
    8        7.147594      7.147606
    9        7.717054      7.717065
   10        9.154433      9.154447
   11       16.732978     16.732994
   12       16.732978     16.732994
   13       17.345298     17.345281
   14       21.376182     21.376191
   15       23.083585     23.083594
   16       23.083585     23.083594
 
  0.3684211E+00  0.3742002E-15  0.3742002E-15  0.8747631E-03
    1      -54.453837    -54.453873
    2      -54.434410    -54.434446
    3      -54.434410    -54.434446
    4        0.507668      0.507680
    5        4.371540      4.371549
    6        6.385335      6.385345
    7        7.060155      7.060167
    8        7.060155      7.060167
    9        7.729202      7.729214
   10        8.792503      8.792517
   11       17.374463     17.374445
   12       17.416694     17.416709
   13       17.416694     17.416709
   14       21.949599     21.949610
   15       21.993766     21.993778
   16       21.993766     21.993778
 
  0.4210526E+00  0.3742002E-15  0.3742002E-15  0.8747631E-03
    1      -54.455661    -54.455697
    2      -54.433932    -54.433968
    3      -54.433932    -54.433968
    4        1.201696      1.201708
    5        3.592568      3.592579
    6        6.435175      6.435185
    7        6.998171      6.998183
    8        6.998171      6.998183
    9        7.738187      7.738198
   10        8.611941      8.611955
   11       17.397818     17.397799
   12       18.160988     18.161000
   13       18.160988     18.161000
   14       20.981375     20.981389
   15       20.981375     20.981389
   16       22.557327     22.557341
 
  0.4736842E+00  0.3742002E-15  0.3742002E-15  0.8747631E-03
    1      -54.457009    -54.457045
    2      -54.433946    -54.433982
    3      -54.433946    -54.433982
    4        1.955595      1.955607
    5        2.779184      2.779195
    6        6.461731      6.461741
    7        6.965891      6.965903
    8        6.965891      6.965903
    9        7.742847      7.742859
   10        8.540561      8.540574
   11       17.410918     17.410898
   12       18.904745     18.904752
   13       18.904745     18.904752
   14       20.104353     20.104373
   15       20.104353     20.104373
   16       23.140948     23.141005
 
  0.5263158E-01  0.5263158E-01  0.3742002E-15  0.1749526E-02
    1      -54.437056    -54.437092
    2      -54.437040    -54.437076
    3      -54.436422    -54.436459
    4       -1.787265     -1.787253
    5        5.998956      5.998964
    6        6.013171      6.013179
    7        7.611026      7.611038
    8        7.630693      7.630704
    9        7.642322      7.642333
   10       13.940728     13.940743
   11       14.189049     14.189066
   12       14.720689     14.720708
   13       17.511474     17.511465
   14       18.042281     18.042274
   15       22.996494     22.996526
   16       28.552830     28.552156
 
  0.1052632E+00  0.5263158E-01  0.3742002E-15  0.3499052E-02
    1      -54.438335    -54.438372
    2      -54.436782    -54.436818
    3      -54.436230    -54.436266
    4       -1.636130     -1.636118
    5        5.986444      5.986452
    6        6.044637      6.044645
    7        7.546005      7.546016
    8        7.572443      7.572454
    9        7.645227      7.645239
   10       12.918389     12.918403
   11       14.276018     14.276034
   12       14.917889     14.917908
   13       17.622208     17.622199
   14       18.924473     18.924468
   15       23.530054     23.530085
   16       27.325670     27.324019
 
  0.1578947E+00  0.5263158E-01  0.3742002E-15  0.3499052E-02
    1      -54.440861    -54.440897
    2      -54.436417    -54.436454
    3      -54.436070    -54.436106
    4       -1.385559     -1.385547
    5        5.935106      5.935114
    6        6.098628      6.098637
    7        7.449913      7.449925
    8        7.479860      7.479871
    9        7.655733      7.655745
   10       11.754168     11.754182
   11       14.558362     14.558377
   12       15.236055     15.236073
   13       17.677512     17.677502
   14       19.798273     19.798270
   15       24.469841     24.469868
   16       26.040959     26.041035
 
  0.2105263E+00  0.5263158E-01  0.3742002E-15  0.3499052E-02
    1      -54.443763    -54.443799
    2      -54.436114    -54.436151
    3      -54.435607    -54.435643
    4       -1.037631     -1.037619
    5        5.804151      5.804159
    6        6.167623      6.167632
    7        7.337911      7.337923
    8        7.370072      7.370084
    9        7.669071      7.669082
   10       10.684692     10.684706
   11       14.936404     14.936417
   12       15.662923     15.662941
   13       17.740224     17.740214
   14       20.512594     20.512593
   15       24.798940     24.798946
   16       25.494577     25.494450
 
  0.2631579E+00  0.5263158E-01  0.3742002E-15  0.3499052E-02
    1      -54.447148    -54.447184
    2      -54.435754    -54.435790
    3      -54.435046    -54.435082
    4       -0.595330     -0.595318
    5        5.530420      5.530428
    6        6.244709      6.244718
    7        7.225827      7.225839
    8        7.256655      7.256667
    9        7.683726      7.683737
   10        9.805579      9.805593
   11       15.388152     15.388164
   12       16.185958     16.185975
   13       17.819514     17.819504
   14       21.119601     21.119606
   15       23.628138     23.628146
   16       24.276911     24.276918
 
  0.3157895E+00  0.5263158E-01  0.3742002E-15  0.3499052E-02
    1      -54.450745    -54.450782
    2      -54.435418    -54.435454
    3      -54.434809    -54.434845
    4       -0.062944     -0.062932
    5        5.060241      5.060250
    6        6.321928      6.321937
    7        7.125731      7.125743
    8        7.151378      7.151390
    9        7.697999      7.698011
   10        9.180498      9.180512
   11       15.887936     15.887945
   12       16.793910     16.793926
   13       17.922295     17.922285
   14       21.690554     21.690562
   15       22.542531     22.542541
   16       23.120970     23.120979
 
  0.3684211E+00  0.5263158E-01  0.3742002E-15  0.3499052E-02
    1      -54.453587    -54.453623
    2      -54.434932    -54.434968
    3      -54.434381    -54.434417
    4        0.553664      0.553676
    5        4.402588      4.402598
    6        6.390912      6.390922
    7        7.044048      7.044060
    8        7.064397      7.064408
    9        7.710487      7.710499
   10        8.806143      8.806157
   11       16.393830     16.393833
   12       17.476723     17.476738
   13       18.064205     18.064198
   14       21.542434     21.542446
   15       22.032352     22.032363
   16       22.285114     22.285124
 
  0.4210526E+00  0.5263158E-01  0.3742002E-15  0.3499052E-02
    1      -54.455747    -54.455784
    2      -54.434849    -54.434885
    3      -54.434124    -54.434160
    4        1.245708      1.245720
    5        3.628818      3.628828
    6        6.443377      6.443387
    7        6.984821      6.984833
    8        7.002559      7.002571
    9        7.719531      7.719543
   10        8.616177      8.616191
   11       16.825932     16.825927
   12       18.221627     18.221640
   13       18.277543     18.277541
   14       20.683472     20.683487
   15       21.019547     21.019561
   16       22.896490     22.896504
 
  0.4736842E+00  0.5263158E-01  0.3742002E-15  0.3499052E-02
    1      -54.457049    -54.457085
    2      -54.434957    -54.434994
    3      -54.434068    -54.434105
    4        1.996053      1.996064
    5        2.820693      2.820704
    6        6.471957      6.471966
    7        6.953206      6.953217
    8        6.970374      6.970385
    9        7.724304      7.724316
   10        8.540212      8.540225
   11       17.072481     17.072468
   12       18.540173     18.540177
   13       18.973469     18.973476
   14       20.070895     20.070911
   15       20.134557     20.134576
   16       23.487409     23.487521
 
  0.1052632E+00  0.1052632E+00  0.3742002E-15  0.1749526E-02
    1      -54.438222    -54.438259
    2      -54.438148    -54.438184
    3      -54.436046    -54.436083
    4       -1.485703     -1.485691
    5        6.004679      6.004687
    6        6.051118      6.051127
    7        7.475017      7.475029
    8        7.562052      7.562064
    9        7.602020      7.602031
   10       12.835657     12.835670
   11       13.402801     13.402817
   12       15.112915     15.112933
   13       17.996531     17.996523
   14       19.640429     19.640423
   15       23.976580     23.976610
   16       26.095100     26.095103
 
  0.1578947E+00  0.1052632E+00  0.3742002E-15  0.3499052E-02
    1      -54.440539    -54.440575
    2      -54.438013    -54.438050
    3      -54.435776    -54.435812
    4       -1.236351     -1.236339
    5        5.973578      5.973586
    6        6.094292      6.094301
    7        7.371977      7.371989
    8        7.483884      7.483895
    9        7.600623      7.600634
   10       11.860510     11.860523
   11       13.470132     13.470146
   12       15.427858     15.427877
   13       18.156913     18.156905
   14       20.535720     20.535715
   15       24.731794     24.731811
   16       24.888428     24.888445
 
  0.2105263E+00  0.1052632E+00  0.3742002E-15  0.3499052E-02
    1      -54.443661    -54.443697
    2      -54.437649    -54.437685
    3      -54.435324    -54.435360
    4       -0.890218     -0.890205
    5        5.854095      5.854103
    6        6.163828      6.163836
    7        7.256838      7.256850
    8        7.377491      7.377502
    9        7.613355      7.613367
   10       10.802105     10.802119
   11       13.802426     13.802439
   12       15.850825     15.850843
   13       18.252768     18.252759
   14       21.317359     21.317356
   15       23.618464     23.618472
   16       25.592861     25.592621
 
  0.2631579E+00  0.1052632E+00  0.3742002E-15  0.3499052E-02
    1      -54.447157    -54.447193
    2      -54.437311    -54.437347
    3      -54.434863    -54.434900
    4       -0.450393     -0.450381
    5        5.591236      5.591244
    6        6.244405      6.244414
    7        7.151240      7.151251
    8        7.266101      7.266113
    9        7.628611      7.628623
   10        9.908910      9.908924
   11       14.225135     14.225147
   12       16.369659     16.369676
   13       18.315986     18.315976
   14       21.953464     21.953467
   15       22.540466     22.540476
   16       24.382362     24.382369
 
  0.3157895E+00  0.1052632E+00  0.3742002E-15  0.3499052E-02
    1      -54.450560    -54.450596
    2      -54.437080    -54.437116
    3      -54.434571    -54.434607
    4        0.078700      0.078712
    5        5.134609      5.134618
    6        6.327261      6.327270
    7        7.066428      7.066440
    8        7.162496      7.162508
    9        7.643753      7.643764
   10        9.253781      9.253795
   11       14.714269     14.714278
   12       16.973536     16.973552
   13       18.323075     18.323065
   14       21.544217     21.544228
   15       22.593519     22.593525
   16       23.232514     23.232523
 
  0.3684211E+00  0.1052632E+00  0.3742002E-15  0.3499052E-02
    1      -54.453583    -54.453620
    2      -54.436897    -54.436934
    3      -54.434344    -54.434380
    4        0.690848      0.690859
    5        4.493647      4.493657
    6        6.404057      6.404067
    7        6.999356      6.999368
    8        7.076477      7.076489
    9        7.656928      7.656940
   10        8.844653      8.844667
   11       15.252280     15.252287
   12       17.653267     17.653282
   13       18.211237     18.211228
   14       20.819756     20.819768
   15       22.148381     22.148392
   16       23.160092     23.160101
 
  0.4210526E+00  0.1052632E+00  0.3742002E-15  0.3499052E-02
    1      -54.455789    -54.455825
    2      -54.436889    -54.436925
    3      -54.434112    -54.434148
    4        1.376656      1.376668
    5        3.736304      3.736314
    6        6.465624      6.465633
    7        6.947168      6.947179
    8        7.015297      7.015308
    9        7.666625      7.666636
   10        8.628047      8.628061
   11       15.808588     15.808592
   12       17.920993     17.920989
   13       18.398854     18.398867
   14       20.375089     20.375099
   15       21.135814     21.135827
   16       23.719292     23.719311
 
  0.4736842E+00  0.1052632E+00  0.3742002E-15  0.3499052E-02
    1      -54.456886    -54.456923
    2      -54.436723    -54.436760
    3      -54.434143    -54.434180
    4        2.115290      2.115302
    5        2.945260      2.945271
    6        6.501287      6.501297
    7        6.916392      6.916403
    8        6.983495      6.983506
    9        7.671738      7.671750
   10        8.538737      8.538750
   11       16.276824     16.276822
   12       17.555119     17.555123
   13       19.172463     19.172472
   14       20.192926     20.192933
   15       20.229514     20.229532
   16       24.217362     24.217308
 
  0.1578947E+00  0.1578947E+00  0.3742002E-15  0.1749526E-02
    1      -54.440379    -54.440416
    2      -54.440284    -54.440320
    3      -54.435429    -54.435466
    4       -0.989126     -0.989114
    5        6.016943      6.016952
    6        6.078489      6.078498
    7        7.261333      7.261344
    8        7.469310      7.469322
    9        7.539304      7.539315
   10       11.761053     11.761064
   11       12.639739     12.639754
   12       15.737895     15.737913
   13       18.398893     18.398885
   14       21.525295     21.525289
   15       23.572892     23.572900
   16       25.415093     25.415119
 
  0.2105263E+00  0.1578947E+00  0.3742002E-15  0.3499052E-02
    1      -54.443361    -54.443398
    2      -54.440121    -54.440157
    3      -54.434991    -54.435027
    4       -0.646080     -0.646068
    5        5.932610      5.932618
    6        6.132782      6.132791
    7        7.145100      7.145112
    8        7.385931      7.385942
    9        7.533096      7.533107
   10       10.934452     10.934465
   11       12.710793     12.710807
   12       16.154723     16.154741
   13       18.507509     18.507501
   14       22.365588     22.365591
   15       22.505470     22.505470
   16       25.744713     25.745117
 
  0.2631579E+00  0.1578947E+00  0.3742002E-15  0.3499052E-02
    1      -54.446914    -54.446950
    2      -54.439852    -54.439888
    3      -54.434790    -54.434827
    4       -0.210595     -0.210583
    5        5.685016      5.685025
    6        6.222842      6.222851
    7        7.051419      7.051431
    8        7.280130      7.280142
    9        7.546520      7.546531
   10       10.050233     10.050246
   11       13.082305     13.082318
   12       16.666615     16.666632
   13       18.489494     18.489485
   14       21.446567     21.446578
   15       23.201231     23.201229
   16       24.551767     24.551773
 
  0.3157895E+00  0.1578947E+00  0.3742002E-15  0.3499052E-02
    1      -54.450395    -54.450432
    2      -54.439597    -54.439634
    3      -54.434329    -54.434366
    4        0.312659      0.312671
    5        5.249916      5.249925
    6        6.319187      6.319196
    7        6.987831      6.987843
    8        7.179476      7.179487
    9        7.562267      7.562278
   10        9.359163      9.359177
   11       13.555707     13.555718
   12       17.263264     17.263281
   13       18.248300     18.248293
   14       20.784530     20.784540
   15       23.415450     23.415459
   16       23.798544     23.798546
 
  0.3684211E+00  0.1578947E+00  0.3742002E-15  0.3499052E-02
    1      -54.453455    -54.453491
    2      -54.439474    -54.439511
    3      -54.434244    -54.434281
    4        0.916801      0.916813
    5        4.638278      4.638287
    6        6.412434      6.412443
    7        6.938858      6.938869
    8        7.095207      7.095218
    9        7.576381      7.576393
   10        8.901036      8.901050
   11       14.102643     14.102653
   12       17.718874     17.718871
   13       17.936364     17.936379
   14       20.495473     20.495480
   15       22.342172     22.342183
   16       24.251860     24.251865
 
  0.4210526E+00  0.1578947E+00  0.3742002E-15  0.3499052E-02
    1      -54.455516    -54.455553
    2      -54.439314    -54.439351
    3      -54.433984    -54.434021
    4        1.591053      1.591065
    5        3.911030      3.911040
    6        6.492978      6.492988
    7        6.892791      6.892802
    8        7.035150      7.035162
    9        7.586933      7.586944
   10        8.644550      8.644563
   11       14.706728     14.706735
   12       17.020874     17.020876
   13       18.679108     18.679122
   14       20.447404     20.447408
   15       21.335151     21.335164
   16       24.436957     24.436980
 
  0.4736842E+00  0.1578947E+00  0.3742002E-15  0.3499052E-02
    1      -54.456607    -54.456643
    2      -54.439371    -54.439408
    3      -54.434032    -54.434068
    4        2.306675      2.306686
    5        3.152940      3.152951
    6        6.544561      6.544571
    7        6.858257      6.858268
    8        7.003920      7.003932
    9        7.592554      7.592566
   10        8.534494      8.534507
   11       15.305644     15.305649
   12       16.346917     16.346922
   13       19.477182     19.477193
   14       20.405707     20.405723
   15       20.469030     20.469031
   16       24.382472     24.382483
 
  0.2105263E+00  0.2105263E+00  0.3742002E-15  0.1749526E-02
    1      -54.443165    -54.443202
    2      -54.443122    -54.443158
    3      -54.434715    -54.434752
    4       -0.307703     -0.307691
    5        6.023253      6.023262
    6        6.039519      6.039527
    7        7.035636      7.035647
    8        7.372881      7.372893
    9        7.460967      7.460978
   10       10.803324     10.803336
   11       12.045448     12.045463
   12       16.563514     16.563532
   13       18.543615     18.543606
   14       21.404471     21.404482
   15       23.581273     23.581265
   16       25.760201     25.759948
 
  0.2631579E+00  0.2105263E+00  0.3742002E-15  0.3499052E-02
    1      -54.446748    -54.446785
    2      -54.442947    -54.442983
    3      -54.434604    -54.434640
    4        0.121281      0.121294
    5        5.793489      5.793498
    6        6.149380      6.149389
    7        6.959998      6.960009
    8        7.294206      7.294218
    9        7.451653      7.451664
   10       10.148943     10.148955
   11       12.127509     12.127523
   12       17.065679     17.065696
   13       18.272439     18.272433
   14       20.741397     20.741407
   15       24.497417     24.497408
   16       24.759833     24.759839
 
  0.3157895E+00  0.2105263E+00  0.3742002E-15  0.3499052E-02
    1      -54.450338    -54.450375
    2      -54.442791    -54.442827
    3      -54.434309    -54.434345
    4        0.635533      0.635545
    5        5.389272      5.389282
    6        6.271431      6.271440
    7        6.918454      6.918465
    8        7.199983      7.199995
    9        7.464856      7.464868
   10        9.463713      9.463726
   11       12.517659     12.517672
   12       17.633845     17.633843
   13       17.651056     17.651073
   14       20.528342     20.528348
   15       23.660381     23.660390
   16       25.039888     25.039884
 
  0.3684211E+00  0.2105263E+00  0.3742002E-15  0.3499052E-02
    1      -54.453159    -54.453196
    2      -54.442656    -54.442693
    3      -54.434213    -54.434250
    4        1.227125      1.227137
    5        4.823771      4.823781
    6        6.392610      6.392619
    7        6.884686      6.884697
    8        7.118588      7.118599
    9        7.479407      7.479418
   10        8.961082      8.961095
   11       13.031316     13.031328
   12       16.803357     16.803360
   13       18.311636     18.311652
   14       20.590923     20.590925
   15       22.612007     22.612017
   16       25.011789     25.011791
 
  0.4210526E+00  0.2105263E+00  0.3742002E-15  0.3499052E-02
    1      -54.455196    -54.455233
    2      -54.442584    -54.442620
    3      -54.433967    -54.434003
    4        1.882481      1.882493
    5        4.145442      4.145453
    6        6.504976      6.504986
    7        6.838168      6.838179
    8        7.060078      7.060090
    9        7.490773      7.490784
   10        8.659443      8.659456
   11       13.633082     13.633093
   12       15.944569     15.944574
   13       19.041786     19.041801
   14       20.740420     20.740420
   15       21.624604     21.624615
   16       24.658108     24.658115
 
  0.4736842E+00  0.2105263E+00  0.3742002E-15  0.3499052E-02
    1      -54.456191    -54.456227
    2      -54.442535    -54.442572
    3      -54.433894    -54.433931
    4        2.558597      2.558609
    5        3.443250      3.443261
    6        6.590953      6.590963
    7        6.785426      6.785437
    8        7.029533      7.029544
    9        7.496881      7.496892
   10        8.524189      8.524202
   11       14.295402     14.295411
   12       15.143794     15.143801
   13       19.837491     19.837506
   14       20.700843     20.700855
   15       20.854648     20.854646
   16       24.401733     24.401741
 
  0.2631579E+00  0.2631579E+00  0.3742002E-15  0.1749526E-02
    1      -54.446636    -54.446673
    2      -54.446384    -54.446420
    3      -54.434402    -54.434438
    4        0.540961      0.540973
    5        5.805507      5.805517
    6        6.075548      6.075557
    7        6.905456      6.905467
    8        7.287323      7.287335
    9        7.375208      7.375219
   10        9.981933      9.981945
   11       11.639184     11.639198
   12       17.554985     17.555002
   13       17.608325     17.608324
   14       20.533226     20.533231
   15       24.758368     24.758380
   16       25.574820     25.512777
 
  0.3157895E+00  0.2631579E+00  0.3742002E-15  0.3499052E-02
    1      -54.450025    -54.450062
    2      -54.446376    -54.446412
    3      -54.434224    -54.434260
    4        1.042056      1.042068
    5        5.509697      5.509707
    6        6.175632      6.175641
    7        6.881306      6.881317
    8        7.219813      7.219824
    9        7.365722      7.365733
   10        9.488033      9.488046
   11       11.731922     11.731936
   12       16.711010     16.711013
   13       18.123692     18.123709
   14       20.646715     20.646718
   15       23.928206     23.928213
   16       25.717872     25.720082
 
  0.3684211E+00  0.2631579E+00  0.3742002E-15  0.3499052E-02
    1      -54.452913    -54.452949
    2      -54.446102    -54.446139
    3      -54.434050    -54.434087
    4        1.614701      1.614713
    5        5.025867      5.025878
    6        6.323060      6.323070
    7        6.857513      6.857523
    8        7.143883      7.143894
    9        7.378181      7.378192
   10        8.995183      8.995196
   11       12.120627     12.120640
   12       15.774328     15.774335
   13       18.762513     18.762530
   14       20.890057     20.890057
   15       22.947843     22.947853
   16       25.227531     25.227570
 
  0.4210526E+00  0.2631579E+00  0.3742002E-15  0.3499052E-02
    1      -54.454704    -54.454740
    2      -54.445791    -54.445827
    3      -54.433783    -54.433819
    4        2.240380      2.240391
    5        4.426698      4.426708
    6        6.471022      6.471031
    7        6.808268      6.808278
    8        7.087280      7.087291
    9        7.389881      7.389892
   10        8.661389      8.661402
   11       12.658171     12.658183
   12       14.876460     14.876469
   13       19.461970     19.461987
   14       21.154785     21.154784
   15       22.009935     22.009945
   16       24.722303     24.722309
 
  0.4736842E+00  0.2631579E+00  0.3742002E-15  0.3499052E-02
    1      -54.455714    -54.455751
    2      -54.445576    -54.445612
    3      -54.433603    -54.433639
    4        2.853949      2.853961
    5        3.813663      3.813674
    6        6.606694      6.606704
    7        6.724231      6.724241
    8        7.057579      7.057590
    9        7.396458      7.396469
   10        8.502307      8.502320
   11       13.305322     13.305333
   12       14.048535     14.048544
   13       20.189054     20.189074
   14       21.162626     21.162634
   15       21.337404     21.337401
   16       24.407160     24.407167
 
  0.3157895E+00  0.3157895E+00  0.3742002E-15  0.1749526E-02
    1      -54.449729    -54.449765
    2      -54.449266    -54.449303
    3      -54.434028    -54.434064
    4        1.524089      1.524101
    5        5.482910      5.482920
    6        6.126363      6.126372
    7        6.868680      6.868691
    8        7.220914      7.220926
    9        7.291462      7.291472
   10        9.302955      9.302967
   11       11.381011     11.381025
   12       15.722380     15.722387
   13       18.668200     18.668218
   14       20.933429     20.933430
   15       23.960018     23.960032
   16       24.959767     24.959868
 
  0.3684211E+00  0.3157895E+00  0.3742002E-15  0.3499052E-02
    1      -54.452415    -54.452451
    2      -54.449151    -54.449188
    3      -54.433699    -54.433735
    4        2.068162      2.068174
    5        5.192516      5.192526
    6        6.224524      6.224533
    7        6.851427      6.851437
    8        7.167291      7.167302
    9        7.284658      7.284669