unknown system                          
           1
     2.878939    0.000000    0.000000
     0.000000    2.878939    0.000000
     0.000000    0.000000    2.878939
   Al   Ni
   1   1
unknown system                          
           1
     2.908255   -0.000000    0.000000
    -0.000000    2.908255    0.000000
    -0.000000   -0.000000    2.908255
   Al   Ni
   1   1
Direct configuration=     1
   0.00000000  0.00000000  0.00000000
   0.50000000  0.50000000  0.50000000
unknown system                          
           1
     2.889043   -0.000000    0.000000
    -0.000000    2.889043    0.000000
    -0.000000   -0.000000    2.889043
   Al   Ni
   1   1
Direct configuration=     2
   0.00000000  0.00000000  0.00000000
   0.50000000  0.50000000  0.50000000
unknown system                          
           1
     2.894763   -0.000000    0.000000
    -0.000000    2.894763    0.000000
    -0.000000   -0.000000    2.894763
   Al   Ni
   1   1
Direct configuration=     3
   0.00000000  0.00000000  0.00000000
   0.50000000  0.50000000  0.50000000
unknown system                          
           1
     2.894763   -0.000000    0.000000
    -0.000000    2.894763    0.000000
    -0.000000   -0.000000    2.894763
   Al   Ni
   1   1
Direct configuration=     4
   0.00000000  0.00000000  0.00000000
   0.50000000  0.50000000  0.50000000
