   2   2   0   0
  0.1212856E+02  0.2894763E-09  0.2894763E-09  0.2894763E-09  0.5000000E-15
  1.000000000000000E-004
  CAR 
 final                                   
     34.10086185    -58.68087166  301      9.16463911      1.00000000
    -58.681  0.0000E+00  0.0000E+00  0.0000E+00  0.0000E+00
    -58.372  0.0000E+00  0.0000E+00  0.0000E+00  0.0000E+00
    -58.062  0.0000E+00  0.0000E+00  0.0000E+00  0.0000E+00
    -57.753  0.0000E+00  0.0000E+00  0.0000E+00  0.0000E+00
    -57.444  0.0000E+00  0.0000E+00  0.0000E+00  0.0000E+00
    -57.135  0.0000E+00  0.0000E+00  0.0000E+00  0.0000E+00
    -56.825  0.0000E+00  0.0000E+00  0.0000E+00  0.0000E+00
    -56.516  0.0000E+00  0.0000E+00  0.0000E+00  0.0000E+00
    -56.207  0.0000E+00  0.0000E+00  0.0000E+00  0.0000E+00
    -55.897  0.0000E+00  0.0000E+00  0.0000E+00  0.0000E+00
    -55.588  0.0000E+00  0.0000E+00  0.0000E+00  0.0000E+00
    -55.279  0.0000E+00  0.0000E+00  0.0000E+00  0.0000E+00
    -54.970  0.0000E+00  0.0000E+00  0.0000E+00  0.0000E+00
    -54.660  0.0000E+00  0.0000E+00  0.0000E+00  0.0000E+00
    -54.351  0.0000E+00  0.0000E+00  0.3000E+01  0.3000E+01
    -54.042  0.0000E+00  0.0000E+00  0.3000E+01  0.3000E+01
    -53.733  0.0000E+00  0.0000E+00  0.3000E+01  0.3000E+01
    -53.423  0.0000E+00  0.0000E+00  0.3000E+01  0.3000E+01
    -53.114  0.0000E+00  0.0000E+00  0.3000E+01  0.3000E+01
    -52.805  0.0000E+00  0.0000E+00  0.3000E+01  0.3000E+01
    -52.495  0.0000E+00  0.0000E+00  0.3000E+01  0.3000E+01
    -52.186  0.0000E+00  0.0000E+00  0.3000E+01  0.3000E+01
    -51.877  0.0000E+00  0.0000E+00  0.3000E+01  0.3000E+01
    -51.568  0.0000E+00  0.0000E+00  0.3000E+01  0.3000E+01
    -51.258  0.0000E+00  0.0000E+00  0.3000E+01  0.3000E+01
    -50.949  0.0000E+00  0.0000E+00  0.3000E+01  0.3000E+01
    -50.640  0.0000E+00  0.0000E+00  0.3000E+01  0.3000E+01
    -50.331  0.0000E+00  0.0000E+00  0.3000E+01  0.3000E+01
    -50.021  0.0000E+00  0.0000E+00  0.3000E+01  0.3000E+01
    -49.712  0.0000E+00  0.0000E+00  0.3000E+01  0.3000E+01
    -49.403  0.0000E+00  0.0000E+00  0.3000E+01  0.3000E+01
    -49.093  0.0000E+00  0.0000E+00  0.3000E+01  0.3000E+01
    -48.784  0.0000E+00  0.0000E+00  0.3000E+01  0.3000E+01
    -48.475  0.0000E+00  0.0000E+00  0.3000E+01  0.3000E+01
    -48.166  0.0000E+00  0.0000E+00  0.3000E+01  0.3000E+01
    -47.856  0.0000E+00  0.0000E+00  0.3000E+01  0.3000E+01
    -47.547  0.0000E+00  0.0000E+00  0.3000E+01  0.3000E+01
    -47.238  0.0000E+00  0.0000E+00  0.3000E+01  0.3000E+01
    -46.929  0.0000E+00  0.0000E+00  0.3000E+01  0.3000E+01
    -46.619  0.0000E+00  0.0000E+00  0.3000E+01  0.3000E+01
    -46.310  0.0000E+00  0.0000E+00  0.3000E+01  0.3000E+01
    -46.001  0.0000E+00  0.0000E+00  0.3000E+01  0.3000E+01
    -45.691  0.0000E+00  0.0000E+00  0.3000E+01  0.3000E+01
    -45.382  0.0000E+00  0.0000E+00  0.3000E+01  0.3000E+01
    -45.073  0.0000E+00  0.0000E+00  0.3000E+01  0.3000E+01
    -44.764  0.0000E+00  0.0000E+00  0.3000E+01  0.3000E+01
    -44.454  0.0000E+00  0.0000E+00  0.3000E+01  0.3000E+01
    -44.145  0.0000E+00  0.0000E+00  0.3000E+01  0.3000E+01
    -43.836  0.0000E+00  0.0000E+00  0.3000E+01  0.3000E+01
    -43.527  0.0000E+00  0.0000E+00  0.3000E+01  0.3000E+01
    -43.217  0.0000E+00  0.0000E+00  0.3000E+01  0.3000E+01
    -42.908  0.0000E+00  0.0000E+00  0.3000E+01  0.3000E+01
    -42.599  0.0000E+00  0.0000E+00  0.3000E+01  0.3000E+01
    -42.289  0.0000E+00  0.0000E+00  0.3000E+01  0.3000E+01
    -41.980  0.0000E+00  0.0000E+00  0.3000E+01  0.3000E+01
    -41.671  0.0000E+00  0.0000E+00  0.3000E+01  0.3000E+01
    -41.362  0.0000E+00  0.0000E+00  0.3000E+01  0.3000E+01
    -41.052  0.0000E+00  0.0000E+00  0.3000E+01  0.3000E+01
    -40.743  0.0000E+00  0.0000E+00  0.3000E+01  0.3000E+01
    -40.434  0.0000E+00  0.0000E+00  0.3000E+01  0.3000E+01
    -40.125  0.0000E+00  0.0000E+00  0.3000E+01  0.3000E+01
    -39.815  0.0000E+00  0.0000E+00  0.3000E+01  0.3000E+01
    -39.506  0.0000E+00  0.0000E+00  0.3000E+01  0.3000E+01
    -39.197  0.0000E+00  0.0000E+00  0.3000E+01  0.3000E+01
    -38.887  0.0000E+00  0.0000E+00  0.3000E+01  0.3000E+01
    -38.578  0.0000E+00  0.0000E+00  0.3000E+01  0.3000E+01
    -38.269  0.0000E+00  0.0000E+00  0.3000E+01  0.3000E+01
    -37.960  0.0000E+00  0.0000E+00  0.3000E+01  0.3000E+01
    -37.650  0.0000E+00  0.0000E+00  0.3000E+01  0.3000E+01
    -37.341  0.0000E+00  0.0000E+00  0.3000E+01  0.3000E+01
    -37.032  0.0000E+00  0.0000E+00  0.3000E+01  0.3000E+01
    -36.723  0.0000E+00  0.0000E+00  0.3000E+01  0.3000E+01
    -36.413  0.0000E+00  0.0000E+00  0.3000E+01  0.3000E+01
    -36.104  0.0000E+00  0.0000E+00  0.3000E+01  0.3000E+01
    -35.795  0.0000E+00  0.0000E+00  0.3000E+01  0.3000E+01
    -35.485  0.0000E+00  0.0000E+00  0.3000E+01  0.3000E+01
    -35.176  0.0000E+00  0.0000E+00  0.3000E+01  0.3000E+01
    -34.867  0.0000E+00  0.0000E+00  0.3000E+01  0.3000E+01
    -34.558  0.0000E+00  0.0000E+00  0.3000E+01  0.3000E+01
    -34.248  0.0000E+00  0.0000E+00  0.3000E+01  0.3000E+01
    -33.939  0.0000E+00  0.0000E+00  0.3000E+01  0.3000E+01
    -33.630  0.0000E+00  0.0000E+00  0.3000E+01  0.3000E+01
    -33.321  0.0000E+00  0.0000E+00  0.3000E+01  0.3000E+01
    -33.011  0.0000E+00  0.0000E+00  0.3000E+01  0.3000E+01
    -32.702  0.0000E+00  0.0000E+00  0.3000E+01  0.3000E+01
    -32.393  0.0000E+00  0.0000E+00  0.3000E+01  0.3000E+01
    -32.083  0.0000E+00  0.0000E+00  0.3000E+01  0.3000E+01
    -31.774  0.0000E+00  0.0000E+00  0.3000E+01  0.3000E+01
    -31.465  0.0000E+00  0.0000E+00  0.3000E+01  0.3000E+01
    -31.156  0.0000E+00  0.0000E+00  0.3000E+01  0.3000E+01
    -30.846  0.0000E+00  0.0000E+00  0.3000E+01  0.3000E+01
    -30.537  0.0000E+00  0.0000E+00  0.3000E+01  0.3000E+01
    -30.228  0.0000E+00  0.0000E+00  0.3000E+01  0.3000E+01
    -29.919  0.0000E+00  0.0000E+00  0.3000E+01  0.3000E+01
    -29.609  0.0000E+00  0.0000E+00  0.3000E+01  0.3000E+01
    -29.300  0.0000E+00  0.0000E+00  0.3000E+01  0.3000E+01
    -28.991  0.0000E+00  0.0000E+00  0.3000E+01  0.3000E+01
    -28.681  0.0000E+00  0.0000E+00  0.3000E+01  0.3000E+01
    -28.372  0.0000E+00  0.0000E+00  0.3000E+01  0.3000E+01
    -28.063  0.0000E+00  0.0000E+00  0.3000E+01  0.3000E+01
    -27.754  0.0000E+00  0.0000E+00  0.3000E+01  0.3000E+01
    -27.444  0.0000E+00  0.0000E+00  0.3000E+01  0.3000E+01
    -27.135  0.0000E+00  0.0000E+00  0.3000E+01  0.3000E+01
    -26.826  0.0000E+00  0.0000E+00  0.3000E+01  0.3000E+01
    -26.517  0.0000E+00  0.0000E+00  0.3000E+01  0.3000E+01
    -26.207  0.0000E+00  0.0000E+00  0.3000E+01  0.3000E+01
    -25.898  0.0000E+00  0.0000E+00  0.3000E+01  0.3000E+01
    -25.589  0.0000E+00  0.0000E+00  0.3000E+01  0.3000E+01
    -25.279  0.0000E+00  0.0000E+00  0.3000E+01  0.3000E+01
    -24.970  0.0000E+00  0.0000E+00  0.3000E+01  0.3000E+01
    -24.661  0.0000E+00  0.0000E+00  0.3000E+01  0.3000E+01
    -24.352  0.0000E+00  0.0000E+00  0.3000E+01  0.3000E+01
    -24.042  0.0000E+00  0.0000E+00  0.3000E+01  0.3000E+01
    -23.733  0.0000E+00  0.0000E+00  0.3000E+01  0.3000E+01
    -23.424  0.0000E+00  0.0000E+00  0.3000E+01  0.3000E+01
    -23.115  0.0000E+00  0.0000E+00  0.3000E+01  0.3000E+01
    -22.805  0.0000E+00  0.0000E+00  0.3000E+01  0.3000E+01
    -22.496  0.0000E+00  0.0000E+00  0.3000E+01  0.3000E+01
    -22.187  0.0000E+00  0.0000E+00  0.3000E+01  0.3000E+01
    -21.877  0.0000E+00  0.0000E+00  0.3000E+01  0.3000E+01
    -21.568  0.0000E+00  0.0000E+00  0.3000E+01  0.3000E+01
    -21.259  0.0000E+00  0.0000E+00  0.3000E+01  0.3000E+01
    -20.950  0.0000E+00  0.0000E+00  0.3000E+01  0.3000E+01
    -20.640  0.0000E+00  0.0000E+00  0.3000E+01  0.3000E+01
    -20.331  0.0000E+00  0.0000E+00  0.3000E+01  0.3000E+01
    -20.022  0.0000E+00  0.0000E+00  0.3000E+01  0.3000E+01
    -19.713  0.0000E+00  0.0000E+00  0.3000E+01  0.3000E+01
    -19.403  0.0000E+00  0.0000E+00  0.3000E+01  0.3000E+01
    -19.094  0.0000E+00  0.0000E+00  0.3000E+01  0.3000E+01
    -18.785  0.0000E+00  0.0000E+00  0.3000E+01  0.3000E+01
    -18.475  0.0000E+00  0.0000E+00  0.3000E+01  0.3000E+01
    -18.166  0.0000E+00  0.0000E+00  0.3000E+01  0.3000E+01
    -17.857  0.0000E+00  0.0000E+00  0.3000E+01  0.3000E+01
    -17.548  0.0000E+00  0.0000E+00  0.3000E+01  0.3000E+01
    -17.238  0.0000E+00  0.0000E+00  0.3000E+01  0.3000E+01
    -16.929  0.0000E+00  0.0000E+00  0.3000E+01  0.3000E+01
    -16.620  0.0000E+00  0.0000E+00  0.3000E+01  0.3000E+01
    -16.311  0.0000E+00  0.0000E+00  0.3000E+01  0.3000E+01
    -16.001  0.0000E+00  0.0000E+00  0.3000E+01  0.3000E+01
    -15.692  0.0000E+00  0.0000E+00  0.3000E+01  0.3000E+01
    -15.383  0.0000E+00  0.0000E+00  0.3000E+01  0.3000E+01
    -15.073  0.0000E+00  0.0000E+00  0.3000E+01  0.3000E+01
    -14.764  0.0000E+00  0.0000E+00  0.3000E+01  0.3000E+01
    -14.455  0.0000E+00  0.0000E+00  0.3000E+01  0.3000E+01
    -14.146  0.0000E+00  0.0000E+00  0.3000E+01  0.3000E+01
    -13.836  0.0000E+00  0.0000E+00  0.3000E+01  0.3000E+01
    -13.527  0.0000E+00  0.0000E+00  0.3000E+01  0.3000E+01
    -13.218  0.0000E+00  0.0000E+00  0.3000E+01  0.3000E+01
    -12.909  0.0000E+00  0.0000E+00  0.3000E+01  0.3000E+01
    -12.599  0.0000E+00  0.0000E+00  0.3000E+01  0.3000E+01
    -12.290  0.0000E+00  0.0000E+00  0.3000E+01  0.3000E+01
    -11.981  0.0000E+00  0.0000E+00  0.3000E+01  0.3000E+01
    -11.671  0.0000E+00  0.0000E+00  0.3000E+01  0.3000E+01
    -11.362  0.0000E+00  0.0000E+00  0.3000E+01  0.3000E+01
    -11.053  0.0000E+00  0.0000E+00  0.3000E+01  0.3000E+01
    -10.744  0.0000E+00  0.0000E+00  0.3000E+01  0.3000E+01
    -10.434  0.0000E+00  0.0000E+00  0.3000E+01  0.3000E+01
    -10.125  0.0000E+00  0.0000E+00  0.3000E+01  0.3000E+01
     -9.816  0.0000E+00  0.0000E+00  0.3000E+01  0.3000E+01
     -9.507  0.0000E+00  0.0000E+00  0.3000E+01  0.3000E+01
     -9.197  0.0000E+00  0.0000E+00  0.3000E+01  0.3000E+01
     -8.888  0.0000E+00  0.0000E+00  0.3000E+01  0.3000E+01
     -8.579  0.0000E+00  0.0000E+00  0.3000E+01  0.3000E+01
     -8.269  0.0000E+00  0.0000E+00  0.3000E+01  0.3000E+01
     -7.960  0.0000E+00  0.0000E+00  0.3000E+01  0.3000E+01
     -7.651  0.0000E+00  0.0000E+00  0.3000E+01  0.3000E+01
     -7.342  0.0000E+00  0.0000E+00  0.3000E+01  0.3000E+01
     -7.032  0.0000E+00  0.0000E+00  0.3000E+01  0.3000E+01
     -6.723  0.0000E+00  0.0000E+00  0.3000E+01  0.3000E+01
     -6.414  0.0000E+00  0.0000E+00  0.3000E+01  0.3000E+01
     -6.105  0.0000E+00  0.0000E+00  0.3000E+01  0.3000E+01
     -5.795  0.0000E+00  0.0000E+00  0.3000E+01  0.3000E+01
     -5.486  0.0000E+00  0.0000E+00  0.3000E+01  0.3000E+01
     -5.177  0.0000E+00  0.0000E+00  0.3000E+01  0.3000E+01
     -4.867  0.0000E+00  0.0000E+00  0.3000E+01  0.3000E+01
     -4.558  0.0000E+00  0.0000E+00  0.3000E+01  0.3000E+01
     -4.249  0.0000E+00  0.0000E+00  0.3000E+01  0.3000E+01
     -3.940  0.0000E+00  0.0000E+00  0.3000E+01  0.3000E+01
     -3.630  0.0000E+00  0.0000E+00  0.3000E+01  0.3000E+01
     -3.321  0.0000E+00  0.0000E+00  0.3000E+01  0.3000E+01
     -3.012  0.0000E+00  0.0000E+00  0.3000E+01  0.3000E+01
     -2.703  0.0000E+00  0.0000E+00  0.3000E+01  0.3000E+01
     -2.393  0.0000E+00  0.0000E+00  0.3000E+01  0.3000E+01
     -2.084  0.0000E+00  0.0000E+00  0.3000E+01  0.3000E+01
     -1.775  0.2338E-01  0.2339E-01  0.3001E+01  0.3001E+01
     -1.465  0.5157E-01  0.5159E-01  0.3014E+01  0.3014E+01
     -1.156  0.6933E-01  0.6935E-01  0.3032E+01  0.3032E+01
     -0.847  0.8381E-01  0.8383E-01  0.3056E+01  0.3056E+01
     -0.538  0.9778E-01  0.9779E-01  0.3084E+01  0.3085E+01
     -0.228  0.1099E+00  0.1099E+00  0.3117E+01  0.3117E+01
      0.081  0.1217E+00  0.1217E+00  0.3152E+01  0.3153E+01
      0.390  0.1335E+00  0.1335E+00  0.3192E+01  0.3192E+01
      0.699  0.1451E+00  0.1451E+00  0.3235E+01  0.3235E+01
      1.009  0.1569E+00  0.1569E+00  0.3282E+01  0.3282E+01
      1.318  0.1699E+00  0.1699E+00  0.3332E+01  0.3332E+01
      1.627  0.1832E+00  0.1832E+00  0.3387E+01  0.3387E+01
      1.937  0.1995E+00  0.1995E+00  0.3446E+01  0.3446E+01
      2.246  0.2294E+00  0.2294E+00  0.3517E+01  0.3517E+01
      2.555  0.2244E+00  0.2244E+00  0.3587E+01  0.3587E+01
      2.864  0.2548E+00  0.2549E+00  0.3658E+01  0.3658E+01
      3.174  0.2850E+00  0.2850E+00  0.3741E+01  0.3742E+01
      3.483  0.3122E+00  0.3123E+00  0.3834E+01  0.3834E+01
      3.792  0.3612E+00  0.3613E+00  0.3937E+01  0.3937E+01
      4.101  0.3137E+00  0.3138E+00  0.4042E+01  0.4042E+01
      4.411  0.3177E+00  0.3178E+00  0.4139E+01  0.4139E+01
      4.720  0.3541E+00  0.3543E+00  0.4242E+01  0.4243E+01
      5.029  0.4591E+00  0.4598E+00  0.4366E+01  0.4366E+01
      5.339  0.1052E+01  0.1052E+01  0.4608E+01  0.4609E+01
      5.648  0.7363E+00  0.7364E+00  0.4881E+01  0.4881E+01
      5.957  0.1119E+01  0.1126E+01  0.5135E+01  0.5136E+01
      6.266  0.1543E+01  0.1561E+01  0.5640E+01  0.5641E+01
      6.576  0.6968E+00  0.6863E+00  0.6025E+01  0.6026E+01
      6.885  0.2286E+01  0.2278E+01  0.6474E+01  0.6477E+01
      7.194  0.4689E+01  0.4677E+01  0.7279E+01  0.7284E+01
      7.503  0.2351E+01  0.2346E+01  0.8331E+01  0.8333E+01
      7.813  0.4437E+00  0.4428E+00  0.8788E+01  0.8789E+01
      8.122  0.2763E+00  0.2752E+00  0.8900E+01  0.8900E+01
      8.431  0.3697E+00  0.3716E+00  0.8984E+01  0.8985E+01
      8.741  0.7144E+00  0.7124E+00  0.9269E+01  0.9270E+01
      9.050  0.4686E+00  0.4679E+00  0.9448E+01  0.9449E+01
      9.359  0.3637E+00  0.3633E+00  0.9576E+01  0.9577E+01
      9.668  0.2913E+00  0.2910E+00  0.9677E+01  0.9678E+01
      9.978  0.2382E+00  0.2380E+00  0.9759E+01  0.9760E+01
     10.287  0.1910E+00  0.1908E+00  0.9826E+01  0.9826E+01
     10.596  0.1526E+00  0.1524E+00  0.9878E+01  0.9879E+01
     10.905  0.1810E+00  0.1812E+00  0.9928E+01  0.9929E+01
     11.215  0.2773E+00  0.2777E+00  0.9995E+01  0.9995E+01
     11.524  0.4342E+00  0.4344E+00  0.1011E+02  0.1011E+02
     11.833  0.4865E+00  0.4863E+00  0.1025E+02  0.1025E+02
     12.143  0.4416E+00  0.4413E+00  0.1039E+02  0.1039E+02
     12.452  0.3938E+00  0.3936E+00  0.1052E+02  0.1052E+02
     12.761  0.3997E+00  0.3995E+00  0.1065E+02  0.1065E+02
     13.070  0.3683E+00  0.3684E+00  0.1077E+02  0.1077E+02
     13.380  0.3705E+00  0.3705E+00  0.1088E+02  0.1088E+02
     13.689  0.3796E+00  0.3797E+00  0.1100E+02  0.1100E+02
     13.998  0.3989E+00  0.3989E+00  0.1112E+02  0.1112E+02
     14.307  0.4283E+00  0.4284E+00  0.1125E+02  0.1125E+02
     14.617  0.4376E+00  0.4376E+00  0.1138E+02  0.1138E+02
     14.926  0.4504E+00  0.4503E+00  0.1152E+02  0.1152E+02
     15.235  0.4442E+00  0.4442E+00  0.1166E+02  0.1166E+02
     15.545  0.4724E+00  0.4703E+00  0.1179E+02  0.1179E+02
     15.854  0.4214E+00  0.4215E+00  0.1193E+02  0.1193E+02
     16.163  0.3984E+00  0.3984E+00  0.1205E+02  0.1205E+02
     16.472  0.3965E+00  0.3965E+00  0.1217E+02  0.1217E+02
     16.782  0.3773E+00  0.3771E+00  0.1230E+02  0.1230E+02
     17.091  0.3589E+00  0.3589E+00  0.1241E+02  0.1241E+02
     17.400  0.3938E+00  0.3976E+00  0.1252E+02  0.1252E+02
     17.709  0.3912E+00  0.3914E+00  0.1263E+02  0.1263E+02
     18.019  0.4573E+00  0.4575E+00  0.1277E+02  0.1277E+02
     18.328  0.5338E+00  0.5341E+00  0.1292E+02  0.1292E+02
     18.637  0.5020E+00  0.5015E+00  0.1309E+02  0.1309E+02
     18.947  0.4178E+00  0.4177E+00  0.1323E+02  0.1323E+02
     19.256  0.3504E+00  0.3504E+00  0.1334E+02  0.1334E+02
     19.565  0.3342E+00  0.3341E+00  0.1345E+02  0.1345E+02
     19.874  0.3340E+00  0.3339E+00  0.1355E+02  0.1355E+02
     20.184  0.3418E+00  0.3418E+00  0.1366E+02  0.1366E+02
     20.493  0.3639E+00  0.3639E+00  0.1377E+02  0.1377E+02
     20.802  0.4220E+00  0.4220E+00  0.1389E+02  0.1389E+02
     21.111  0.4369E+00  0.4370E+00  0.1402E+02  0.1402E+02
     21.421  0.4360E+00  0.4360E+00  0.1415E+02  0.1415E+02
     21.730  0.4592E+00  0.4592E+00  0.1430E+02  0.1430E+02
     22.039  0.4136E+00  0.4135E+00  0.1443E+02  0.1443E+02
     22.349  0.3717E+00  0.3716E+00  0.1455E+02  0.1455E+02
     22.658  0.5015E+00  0.5015E+00  0.1468E+02  0.1468E+02
     22.967  0.5550E+00  0.5548E+00  0.1486E+02  0.1486E+02
     23.276  0.3810E+00  0.3809E+00  0.1500E+02  0.1500E+02
     23.586  0.3319E+00  0.3312E+00  0.1510E+02  0.1510E+02
     23.895  0.3809E+00  0.3785E+00  0.1521E+02  0.1521E+02
     24.204  0.3999E+00  0.3935E+00  0.1533E+02  0.1533E+02
     24.513  0.5289E+00  0.5415E+00  0.1548E+02  0.1547E+02
     24.823  0.5167E+00  0.5191E+00  0.1564E+02  0.1564E+02
     25.132  0.4566E+00  0.4600E+00  0.1581E+02  0.1581E+02
     25.441  0.2163E+00  0.2181E+00  0.1591E+02  0.1591E+02
     25.751  0.9385E-01  0.9727E-01  0.1596E+02  0.1596E+02
     26.060  0.3735E-01  0.3751E-01  0.1598E+02  0.1598E+02
     26.369  0.1529E-01  0.1514E-01  0.1598E+02  0.1598E+02
     26.678  0.9717E-02  0.9738E-02  0.1599E+02  0.1599E+02
     26.988  0.7183E-02  0.7196E-02  0.1599E+02  0.1599E+02
     27.297  0.6138E-02  0.6070E-02  0.1599E+02  0.1599E+02
     27.606  0.5274E-02  0.5190E-02  0.1599E+02  0.1599E+02
     27.915  0.4420E-02  0.4350E-02  0.1600E+02  0.1600E+02
     28.225  0.3600E-02  0.3561E-02  0.1600E+02  0.1600E+02
     28.534  0.3031E-02  0.2993E-02  0.1600E+02  0.1600E+02
     28.843  0.2201E-02  0.2214E-02  0.1600E+02  0.1600E+02
     29.153  0.1208E-02  0.1215E-02  0.1600E+02  0.1600E+02
     29.462  0.4115E-03  0.4116E-03  0.1600E+02  0.1600E+02
     29.771  0.2926E-04  0.2904E-04  0.1600E+02  0.1600E+02
     30.080  0.0000E+00  0.0000E+00  0.1600E+02  0.1600E+02
     30.390  0.0000E+00  0.0000E+00  0.1600E+02  0.1600E+02
     30.699  0.0000E+00  0.0000E+00  0.1600E+02  0.1600E+02
     31.008  0.0000E+00  0.0000E+00  0.1600E+02  0.1600E+02
     31.317  0.0000E+00  0.0000E+00  0.1600E+02  0.1600E+02
     31.627  0.0000E+00  0.0000E+00  0.1600E+02  0.1600E+02
     31.936  0.0000E+00  0.0000E+00  0.1600E+02  0.1600E+02
     32.245  0.0000E+00  0.0000E+00  0.1600E+02  0.1600E+02
     32.554  0.0000E+00  0.0000E+00  0.1600E+02  0.1600E+02
     32.864  0.0000E+00  0.0000E+00  0.1600E+02  0.1600E+02
     33.173  0.0000E+00  0.0000E+00  0.1600E+02  0.1600E+02
     33.482  0.0000E+00  0.0000E+00  0.1600E+02  0.1600E+02
     33.792  0.0000E+00  0.0000E+00  0.1600E+02  0.1600E+02
     34.101  0.0000E+00  0.0000E+00  0.1600E+02  0.1600E+02
