    2    2    1    2
  0.1212856E+02  0.2894763E-09  0.2894763E-09  0.2894763E-09  0.5000000E-15
  1.000000000000000E-004
  CAR 
 final                                   
     19    220     16
 
  0.3742002E-15  0.3742002E-15  0.3742002E-15  0.1457938E-03
    1      -54.439414    -54.442519
    2      -54.439414    -54.442519
    3      -54.439414    -54.442519
    4       -1.888523     -1.888796
    5        5.996025      5.994544
    6        5.996025      5.994544
    7        7.653701      7.652707
    8        7.653701      7.652707
    9        7.653701      7.652707
   10       14.586179     14.585981
   11       14.586179     14.585981
   12       14.586179     14.585981
   13       17.230278     17.229421
   14       17.230278     17.229421
   15       22.648587     22.648877
   16       29.883510     29.882916
 
  0.5263158E-01  0.3742002E-15  0.3742002E-15  0.8747631E-03
    1      -54.439988    -54.443093
    2      -54.439362    -54.442467
    3      -54.439362    -54.442467
    4       -1.837955     -1.838228
    5        5.992426      5.990955
    6        6.007906      6.006423
    7        7.631520      7.630528
    8        7.631520      7.630528
    9        7.656036      7.655042
   10       13.997669     13.997362
   11       14.653349     14.653148
   12       14.653349     14.653148
   13       17.233914     17.233050
   14       17.767350     17.766597
   15       22.826874     22.827159
   16       29.237285     29.235697
 
  0.1052632E+00  0.3742002E-15  0.3742002E-15  0.8747631E-03
    1      -54.441797    -54.444902
    2      -54.439299    -54.442404
    3      -54.439299    -54.442404
    4       -1.686584     -1.686856
    5        5.974661      5.973226
    6        6.042463      6.040976
    7        7.568674      7.567688
    8        7.568674      7.567688
    9        7.662777      7.661783
   10       12.878862     12.878436
   11       14.851284     14.851073
   12       14.851284     14.851073
   13       17.244728     17.243843
   14       18.708422     18.707786
   15       23.389420     23.389673
   16       28.024586     28.024174
 
  0.1578947E+00  0.3742002E-15  0.3742002E-15  0.8747631E-03
    1      -54.443874    -54.446978
    2      -54.439040    -54.442145
    3      -54.439039    -54.442145
    4       -1.435625     -1.435896
    5        5.920231      5.918868
    6        6.096579      6.095086
    7        7.475390      7.474414
    8        7.475390      7.474414
    9        7.673214      7.672220
   10       11.708942     11.708397
   11       15.170564     15.170339
   12       15.170564     15.170339
   13       17.262385     17.261467
   14       19.556200     19.555693
   15       24.368121     24.368303
   16       26.731592     26.731163
 
  0.2105263E+00  0.3742002E-15  0.3742002E-15  0.8747631E-03
    1      -54.447323    -54.450427
    2      -54.438804    -54.441909
    3      -54.438804    -54.441909
    4       -1.087117     -1.087387
    5        5.785698      5.784468
    6        6.165102      6.163601
    7        7.364780      7.363812
    8        7.364780      7.363812
    9        7.686240      7.685246
   10       10.640222     10.639510
   11       15.598740     15.598495
   12       15.598740     15.598495
   13       17.286138     17.285174
   14       20.238174     20.237805
   15       25.460752     25.460374
   16       25.466732     25.553275
 
  0.2631579E+00  0.3742002E-15  0.3742002E-15  0.8747631E-03
    1      -54.450848    -54.453951
    2      -54.438660    -54.441765
    3      -54.438660    -54.441765
    4       -0.644029     -0.644298
    5        5.508478      5.507456
    6        6.241134      6.239624
    7        7.250562      7.249603
    8        7.250562      7.249603
    9        7.700439      7.699446
   10        9.766914      9.765965
   11       16.123162     16.122891
   12       16.123162     16.122891
   13       17.314558     17.313537
   14       20.820202     20.819976
   15       24.240969     24.240646
   16       24.240969     24.240647
 
  0.3157895E+00  0.3742002E-15  0.3742002E-15  0.8747631E-03
    1      -54.454035    -54.457137
    2      -54.438044    -54.441149
    3      -54.438044    -54.441149
    4       -0.110585     -0.110855
    5        5.033985      5.033210
    6        6.316884      6.315365
    7        7.145101      7.144149
    8        7.145101      7.144149
    9        7.714373      7.713380
   10        9.152571      9.151349
   11       16.732475     16.732170
   12       16.732475     16.732170
   13       17.345256     17.344173
   14       21.375421     21.375329
   15       23.083082     23.082820
   16       23.083082     23.082821
 
  0.3684211E+00  0.3742002E-15  0.3742002E-15  0.8747631E-03
    1      -54.456888    -54.459989
    2      -54.437684    -54.440789
    3      -54.437684    -54.440789
    4        0.507434      0.507162
    5        4.371069      4.370501
    6        6.383550      6.382022
    7        7.057804      7.056857
    8        7.057804      7.056857
    9        7.726419      7.725426
   10        8.790398      8.788951
   11       17.374622     17.373477
   12       17.416232     17.415873
   13       17.416232     17.415873
   14       21.948783     21.948843
   15       21.993103     21.992913
   16       21.993103     21.992913
 
  0.4210526E+00  0.3742002E-15  0.3742002E-15  0.8747631E-03
    1      -54.459268    -54.462369
    2      -54.437599    -54.440705
    3      -54.437599    -54.440705
    4        1.201416      1.201139
    5        3.592200      3.591760
    6        6.433240      6.431705
    7        6.995654      6.994711
    8        6.995654      6.994711
    9        7.735246      7.734253
   10        8.609550      8.607965
   11       17.398139     17.396943
   12       18.160677     18.160214
   13       18.160677     18.160214
   14       20.980452     20.980379
   15       20.980452     20.980379
   16       22.556442     22.556778
 
  0.4736842E+00  0.3742002E-15  0.3742002E-15  0.8747631E-03
    1      -54.460420    -54.463520
    2      -54.437502    -54.440607
    3      -54.437501    -54.440607
    4        1.955280      1.955012
    5        2.778883      2.778488
    6        6.459814      6.458276
    7        6.963500      6.962559
    8        6.963500      6.962559
    9        7.739937      7.738944
   10        8.538094      8.536447
   11       17.411335     17.410109
   12       18.904998     18.904208
   13       18.904998     18.904208
   14       20.102860     20.103119
   15       20.102860     20.103119
   16       23.139943     23.141090
 
  0.5263158E-01  0.5263158E-01  0.3742002E-15  0.1749526E-02
    1      -54.440025    -54.443131
    2      -54.439933    -54.443038
    3      -54.439315    -54.442421
    4       -1.787439     -1.787712
    5        5.997538      5.996072
    6        6.011729      6.010251
    7        7.608458      7.607469
    8        7.628150      7.627160
    9        7.639772      7.638778
   10       13.940118     13.939767
   11       14.188516     14.188254
   12       14.720244     14.720040
   13       17.510770     17.509963
   14       18.041653     18.040930
   15       22.995118     22.995399
   16       28.554785     28.563692
 
  0.1052632E+00  0.5263158E-01  0.3742002E-15  0.3499052E-02
    1      -54.441585    -54.444690
    2      -54.439817    -54.442922
    3      -54.439246    -54.442352
    4       -1.636312     -1.636584
    5        5.984945      5.983510
    6        6.043137      6.041658
    7        7.543464      7.542481
    8        7.569803      7.568818
    9        7.642662      7.641669
   10       12.917616     12.917179
   11       14.275434     14.275133
   12       14.917409     14.917196
   13       17.621578     17.620769
   14       18.923921     18.923284
   15       23.528692     23.528952
   16       27.326662     27.332955
 
  0.1578947E+00  0.5263158E-01  0.3742002E-15  0.3499052E-02
    1      -54.443818    -54.446922
    2      -54.439608    -54.442713
    3      -54.438988    -54.442094
    4       -1.385745     -1.386016
    5        5.933784      5.932421
    6        6.097071      6.095586
    7        7.447404      7.446427
    8        7.477397      7.476421
    9        7.653137      7.652144
   10       11.753204     11.752656
   11       14.557750     14.557425
   12       15.235554     15.235327
   13       17.676996     17.676160
   14       19.797742     19.797220
   15       24.468565     24.468762
   16       26.040997     26.051253
 
  0.2105263E+00  0.5263158E-01  0.3742002E-15  0.3499052E-02
    1      -54.447255    -54.450358
    2      -54.439322    -54.442427
    3      -54.438760    -54.441865
    4       -1.037829     -1.038098
    5        5.802860      5.801629
    6        6.166017      6.164525
    7        7.335340      7.334369
    8        7.367498      7.366530
    9        7.666438      7.665445
   10       10.683469     10.682759
   11       14.935771     14.935414
   12       15.662379     15.662135
   13       17.739872     17.738998
   14       20.511975     20.511591
   15       24.798601     24.798856
   16       25.496700     25.718784
 
  0.2631579E+00  0.5263158E-01  0.3742002E-15  0.3499052E-02
    1      -54.450558    -54.453661
    2      -54.438979    -54.442084
    3      -54.438415    -54.441520
    4       -0.595541     -0.595810
    5        5.529447      5.528423
    6        6.243020      6.241518
    7        7.223326      7.222358
    8        7.254005      7.253045
    9        7.681038      7.680045
   10        9.804058      9.803117
   11       15.387527     15.387125
   12       16.185402     16.185134
   13       17.819352     17.818435
   14       21.118924     21.118681
   15       23.627581     23.627424
   16       24.276574     24.276250
 
  0.3157895E+00  0.5263158E-01  0.3742002E-15  0.3499052E-02
    1      -54.453836    -54.456938
    2      -54.438480    -54.441585
    3      -54.437880    -54.440985
    4       -0.063165     -0.063434
    5        5.059560      5.058782
    6        6.320240      6.318728
    7        7.123386      7.122423
    8        7.149004      7.148051
    9        7.695377      7.694384
   10        9.178651      9.177442
   11       15.887360     15.886884
   12       16.793383     16.793083
   13       17.922342     17.921391
   14       21.689827     21.689726
   15       22.541812     22.541696
   16       23.120482     23.120216
 
  0.3684211E+00  0.5263158E-01  0.3742002E-15  0.3499052E-02
    1      -54.457023    -54.460124
    2      -54.438474    -54.441579
    3      -54.437702    -54.440807
    4        0.553418      0.553146
    5        4.402075      4.401503
    6        6.389116      6.387595
    7        7.041537      7.040584
    8        7.061958      7.061010
    9        7.707664      7.706672
   10        8.803991      8.802553
   11       16.393345     16.392744
   12       17.476250     17.475900
   13       18.064421     18.063464
   14       21.541547     21.541538
   15       22.031697     22.031500
   16       22.284273     22.284288
 
  0.4210526E+00  0.5263158E-01  0.3742002E-15  0.3499052E-02
    1      -54.459072    -54.462173
    2      -54.438027    -54.441132
    3      -54.437379    -54.440484
    4        1.245438      1.245162
    5        3.628455      3.628010
    6        6.441591      6.440060
    7        6.982515      6.981572
    8        7.000111      6.999167
    9        7.716825      7.715833
   10        8.613889      8.612307
   11       16.825692     16.824901
   12       18.221315     18.220868
   13       18.277881     18.276954
   14       20.682352     20.682452
   15       21.018656     21.018571
   16       22.895646     22.895950
 
  0.4736842E+00  0.5263158E-01  0.3742002E-15  0.3499052E-02
    1      -54.460369    -54.463469
    2      -54.438078    -54.441183
    3      -54.437467    -54.440572
    4        1.995739      1.995473
    5        2.820387      2.819985
    6        6.470122      6.468586
    7        6.950932      6.949996
    8        6.968025      6.967082
    9        7.721552      7.720560
   10        8.537789      8.536142
   11       17.072463     17.071499
   12       18.540689     18.539716
   13       18.973690     18.972924
   14       20.069460     20.069742
   15       20.133102     20.133342
   16       23.486364     23.488723
 
  0.1052632E+00  0.1052632E+00  0.3742002E-15  0.1749526E-02
    1      -54.441379    -54.444484
    2      -54.441202    -54.444307
    3      -54.439137    -54.442242
    4       -1.485889     -1.486160
    5        6.003187      6.001764
    6        6.049645      6.048183
    7        7.472560      7.471580
    8        7.559458      7.558480
    9        7.599372      7.598378
   10       12.834810     12.834309
   11       13.402104     13.401756
   12       15.112408     15.112188
   13       17.995995     17.995224
   14       19.639989     19.639358
   15       23.975225     23.975478
   16       26.094858     26.094644
 
  0.1578947E+00  0.1052632E+00  0.3742002E-15  0.3499052E-02
    1      -54.443931    -54.447035
    2      -54.441161    -54.444266
    3      -54.438928    -54.442033
    4       -1.236544     -1.236814
    5        5.972133      5.970769
    6        6.092781      6.091323
    7        7.369396      7.368418
    8        7.481309      7.480334
    9        7.598015      7.597024
   10       11.859522     11.858956
   11       13.469352     13.468952
   12       15.427313     15.427083
   13       18.156490     18.155696
   14       20.535325     20.534750
   15       24.731119     24.731034
   16       24.887334     24.887477
 
  0.2105263E+00  0.1052632E+00  0.3742002E-15  0.3499052E-02
    1      -54.446956    -54.450059
    2      -54.440865    -54.443970
    3      -54.438653    -54.441759
    4       -0.890419     -0.890688
    5        5.852834      5.851599
    6        6.162204      6.160741
    7        7.254404      7.253419
    8        7.374867      7.373899
    9        7.610741      7.609750
   10       10.800873     10.800167
   11       13.801626     13.801202
   12       15.850237     15.849994
   13       18.252515     18.251663
   14       21.316916     21.316456
   15       23.617830     23.617918
   16       25.593407     25.666603
 
  0.2631579E+00  0.1052632E+00  0.3742002E-15  0.3499052E-02
    1      -54.450367    -54.453470
    2      -54.440553    -54.443658
    3      -54.438255    -54.441360
    4       -0.450606     -0.450874
    5        5.590223      5.589191
    6        6.242736      6.241264
    7        7.148888      7.147891
    8        7.263548      7.262587
    9        7.625924      7.624933
   10        9.907364      9.906446
   11       14.224349     14.223903
   12       16.369056     16.368795
   13       18.315957     18.315017
   14       21.952968     21.952667
   15       22.539594     22.539583
   16       24.382048     24.381734
 
  0.3157895E+00  0.1052632E+00  0.3742002E-15  0.3499052E-02
    1      -54.453797    -54.456899
    2      -54.440189    -54.443294
    3      -54.437901    -54.441007
    4        0.078468      0.078199
    5        5.133869      5.133078
    6        6.325585      6.324102
    7        7.064124      7.063128
    8        7.159997      7.159042
    9        7.641085      7.640094
   10        9.251918      9.250740
   11       14.713509     14.713037
   12       16.972944     16.972659
   13       18.323299     18.322256
   14       21.543239     21.543395
   15       22.592839     22.592608
   16       23.232050     23.231776
 
  0.3684211E+00  0.1052632E+00  0.3742002E-15  0.3499052E-02
    1      -54.456843    -54.459944
    2      -54.440058    -54.443163
    3      -54.437372    -54.440478
    4        0.690602      0.690331
    5        4.493112      4.492525
    6        6.402360      6.400864
    7        6.997042      6.996067
    8        7.074127      7.073176
    9        7.654300      7.653308
   10        8.842552      8.841139
   11       15.251575     15.251065
   12       17.652752     17.652428
   13       18.211644     18.210532
   14       20.818642     20.818853
   15       22.147777     22.147562
   16       23.159368     23.159248
 
  0.4210526E+00  0.1052632E+00  0.3742002E-15  0.3499052E-02
    1      -54.459133    -54.462234
    2      -54.439929    -54.443034
    3      -54.437409    -54.440515
    4        1.376381      1.376106
    5        3.735904      3.735444
    6        6.463845      6.462331
    7        6.944980      6.944035
    8        7.012893      7.011944
    9        7.663965      7.662973
   10        8.625724      8.624154
   11       15.807941     15.807380
   12       17.921409     17.920348
   13       18.398453     18.398051
   14       20.374038     20.374193
   15       21.134999     21.134877
   16       23.718449     23.719846
 
  0.4736842E+00  0.1052632E+00  0.3742002E-15  0.3499052E-02
    1      -54.460235    -54.463335
    2      -54.439854    -54.442959
    3      -54.437348    -54.440453
    4        2.114960      2.114702
    5        2.944962      2.944541
    6        6.499464      6.497933
    7        6.914160      6.913240
    8        6.981166      6.980219
    9        7.669103      7.668110
   10        8.536352      8.534708
   11       16.276184     16.275569
   12       17.555454     17.554505
   13       19.172534     19.171849
   14       20.192000     20.192063
   15       20.228200     20.228368
   16       24.222818     24.266109
 
  0.1578947E+00  0.1578947E+00  0.3742002E-15  0.1749526E-02
    1      -54.443541    -54.446645
    2      -54.443487    -54.446591
    3      -54.438678    -54.441784
    4       -0.989325     -0.989595
    5        6.015532      6.014183
    6        6.076929      6.075518
    7        7.258949      7.257960
    8        7.466668      7.465701
    9        7.536777      7.535783
   10       11.760021     11.759393
   11       12.638803     12.638378
   12       15.737298     15.737064
   13       18.398585     18.397769
   14       21.525037     21.524425
   15       23.572282     23.572233
   16       25.413892     25.413930
 
  0.2105263E+00  0.1578947E+00  0.3742002E-15  0.3499052E-02
    1      -54.446617    -54.449720
    2      -54.443225    -54.446329
    3      -54.438313    -54.441418
    4       -0.646290     -0.646558
    5        5.931313      5.930069
    6        6.131290      6.129896
    7        7.142799      7.141783
    8        7.383264      7.382298
    9        7.530517      7.529527
   10       10.933218     10.932504
   11       12.709809     12.709343
   12       16.154102     16.153862
   13       18.507378     18.506481
   14       22.365056     22.364898
   15       22.504924     22.504593
   16       25.744791     25.754860
 
  0.2631579E+00  0.1578947E+00  0.3742002E-15  0.3499052E-02
    1      -54.450098    -54.453201
    2      -54.443056    -54.446161
    3      -54.437845    -54.440950
    4       -0.210817     -0.211085
    5        5.683916      5.682871
    6        6.221297      6.219897
    7        7.049180      7.048129
    8        7.277672      7.276709
    9        7.543932      7.542942
   10       10.048718     10.047825
   11       13.081346     13.080868
   12       16.665990     16.665742
   13       18.489588     18.488567
   14       21.445521     21.445736
   15       23.200913     23.200411
   16       24.551489     24.551328
 
  0.3157895E+00  0.1578947E+00  0.3742002E-15  0.3499052E-02
    1      -54.453770    -54.456872
    2      -54.442884    -54.445988
    3      -54.437672    -54.440778
    4        0.312416      0.312147
    5        5.249099      5.248287
    6        6.317524      6.316113
    7        6.985595      6.984537
    8        7.176932      7.175973
    9        7.559579      7.558589
   10        9.357305      9.356170
   11       13.554762     13.554280
   12       17.262615     17.262356
   13       18.248533     18.247445
   14       20.783360     20.783649
   15       23.415029     23.414748
   16       23.798148     23.797691
 
  0.3684211E+00  0.1578947E+00  0.3742002E-15  0.3499052E-02
    1      -54.456738    -54.459840
    2      -54.442756    -54.445861
    3      -54.437592    -54.440697
    4        0.916543      0.916272
    5        4.637671      4.637057
    6        6.410726      6.409294
    7        6.936751      6.935728
    8        7.092796      7.091840
    9        7.573620      7.572629
   10        8.898889      8.897514
   11       14.101728     14.101243
   12       17.719011     17.718019
   13       17.935746     17.935467
   14       20.494494     20.494654
   15       22.341619     22.341380
   16       24.251423     24.251134
 
  0.4210526E+00  0.1578947E+00  0.3742002E-15  0.3499052E-02
    1      -54.458876    -54.461977
    2      -54.442759    -54.445864
    3      -54.437409    -54.440515
    4        1.590761      1.590487
    5        3.910600      3.910115
    6        6.491125      6.489657
    7        6.890673      6.889714
    8        7.032776      7.031823
    9        7.584180      7.583188
   10        8.642155      8.640604
   11       14.705831     14.705350
   12       17.020832     17.019969
   13       18.678555     18.678232
   14       20.446677     20.446673
   15       21.334458     21.334272
   16       24.436446     24.437639
 
  0.4736842E+00  0.1578947E+00  0.3742002E-15  0.3499052E-02
    1      -54.459900    -54.463001
    2      -54.442719    -54.445823
    3      -54.437305    -54.440410
    4        2.306303      2.306052
    5        3.152653      3.152201
    6        6.542779      6.541263
    7        6.856128      6.855233
    8        7.001585      7.000632
    9        7.589806      7.588814
   10        8.532102      8.530463
   11       15.304635     15.304203
   12       16.346928     16.346086
   13       19.476923     19.476422
   14       20.404691     20.404692
   15       20.468481     20.468371
   16       24.381598     24.381565
 
  0.2105263E+00  0.2105263E+00  0.3742002E-15  0.1749526E-02
    1      -54.446612    -54.449716
    2      -54.446236    -54.449340
    3      -54.438050    -54.441155
    4       -0.307925     -0.308193
    5        6.021807      6.020539
    6        6.038211      6.036969
    7        7.033431      7.032356
    8        7.370092      7.369131
    9        7.458439      7.457446
   10       10.802052     10.801288
   11       12.044291     12.043788
   12       16.562864     16.562629
   13       18.543644     18.542640
   14       21.403386     21.403627
   15       23.581240     23.580547
   16       25.760673     25.759486
 
  0.2631579E+00  0.2105263E+00  0.3742002E-15  0.3499052E-02
    1      -54.449725    -54.452827
    2      -54.446055    -54.449159
    3      -54.437583    -54.440688
    4        0.121055      0.120787
    5        5.792306      5.791244
    6        6.147974      6.146713
    7        6.957942      6.956804
    8        7.291831      7.290868
    9        7.449144      7.448155
   10       10.147488     10.146605
   11       12.126336     12.125808
   12       17.065000     17.064770
   13       18.272544     18.271495
   14       20.740230     20.740537
   15       24.497471     24.496722
   16       24.759574     24.762111
 
  0.3157895E+00  0.2105263E+00  0.3742002E-15  0.3499052E-02
    1      -54.453535    -54.456637
    2      -54.445997    -54.449101
    3      -54.437671    -54.440776
    4        0.635281      0.635012
    5        5.388368      5.387524
    6        6.269864      6.268589
    7        6.916370      6.915214
    8        7.197444      7.196480
    9        7.462320      7.461331
   10        9.461934      9.460842
   11       12.516507     12.515985
   12       17.633771     17.632856
   13       17.650331     17.650108
   14       20.527342     20.527517
   15       23.660002     23.659857
   16       25.039912     25.039205
 
  0.3684211E+00  0.2105263E+00  0.3742002E-15  0.3499052E-02
    1      -54.456335    -54.459436
    2      -54.445770    -54.448874
    3      -54.437306    -54.440411
    4        1.226847      1.226575
    5        4.823104      4.822449
    6        6.391030      6.389733
    7        6.882684      6.881570
    8        7.116212      7.115250
    9        7.476912      7.475922
   10        8.959043      8.957711
   11       13.030212     13.029705
   12       16.803060     16.802292
   13       18.310911     18.310695
   14       20.590186     20.590193
   15       22.611542     22.611266
   16       25.011498     25.010927
 
  0.4210526E+00  0.2105263E+00  0.3742002E-15  0.3499052E-02
    1      -54.458514    -54.461616
    2      -54.445613    -54.448717
    3      -54.437139    -54.440244
    4        1.882157      1.881882
    5        4.144978      4.144453
    6        6.503345      6.502002
    7        6.836210      6.835186
    8        7.057667      7.056706
    9        7.488251      7.487260
   10        8.657177      8.655650
   11       13.632029     13.631543
   12       15.944138     15.943449
   13       19.041052     19.040844
   14       20.739917     20.739801
   15       21.624071     21.623806
   16       24.657427     24.657206
 
  0.4736842E+00  0.2105263E+00  0.3742002E-15  0.3499052E-02
    1      -54.459498    -54.462599
    2      -54.445524    -54.448628
    3      -54.436970    -54.440075
    4        2.558180      2.557932
    5        3.442949      3.442459
    6        6.589213      6.587753
    7        6.783587      6.782709
    8        7.027191      7.026231
    9        7.494409      7.493417
   10        8.521831      8.520198
   11       14.294251     14.293842
   12       15.143419     15.142700
   13       19.836726     19.836557
   14       20.700308     20.700006
   15       20.854277     20.854089
   16       24.400892     24.400803
 
  0.2631579E+00  0.2631579E+00  0.3742002E-15  0.1749526E-02
    1      -54.449918    -54.453021
    2      -54.449295    -54.452398
    3      -54.437512    -54.440617
    4        0.540707      0.540439
    5        5.804166      5.803113
    6        6.074460      6.073361
    7        6.903362      6.902138
    8        7.284828      7.283867
    9        7.372808      7.371816
   10        9.980475      9.979548
   11       11.637806     11.637229
   12       17.554245     17.554039
   13       17.608176     17.607289
   14       20.532202     20.532382
   15       24.758426     24.759970
   16       25.567076     25.578533
 
  0.3157895E+00  0.2631579E+00  0.3742002E-15  0.3499052E-02
    1      -54.453213    -54.456315
    2      -54.449319    -54.452422
    3      -54.437390    -54.440496
    4        1.041792      1.041522
    5        5.508610      5.507720
    6        6.174454      6.173370
    7        6.879357      6.878104
    8        7.217347      7.216381
    9        7.363270      7.362281
   10        9.486318      9.485248
   11       11.730558     11.729967
   12       16.710606     16.709886
   13       18.122884     18.122709
   14       20.645937     20.645965
   15       23.927868     23.928928
   16       25.656963     25.716556
 
  0.3684211E+00  0.2631579E+00  0.3742002E-15  0.3499052E-02
    1      -54.456159    -54.459261
    2      -54.449128    -54.452231
    3      -54.437224    -54.440330
    4        1.614394      1.614118
    5        5.025088      5.024373
    6        6.321741      6.320646
    7        6.855593      6.854373
    8        7.141406      7.140437
    9        7.375727      7.374738
   10        8.993232      8.991942
   11       12.119331     12.118758
   12       15.773707     15.773087
   13       18.761647     18.761513
   14       20.889463     20.889384
   15       22.947471     22.947202
   16       25.227214     25.226966
 
  0.4210526E+00  0.2631579E+00  0.3742002E-15  0.3499052E-02
    1      -54.458216    -54.461317
    2      -54.449053    -54.452156
    3      -54.436846    -54.439951
    4        2.240004      2.239723
    5        4.426140      4.425560
    6        6.469459      6.468349
    7        6.806363      6.805210
    8        7.084937      7.083968
    9        7.387452      7.386461
   10        8.659091      8.657590
   11       12.656955     12.656405
   12       14.875670     14.875102
   13       19.461028     19.460970
   14       21.154357     21.154201
   15       22.009582     22.009207
   16       24.721869     24.721589
 
  0.4736842E+00  0.2631579E+00  0.3742002E-15  0.3499052E-02
    1      -54.459092    -54.462193
    2      -54.448799    -54.451902
    3      -54.436762    -54.439868
    4        2.853454      2.853195
    5        3.813354      3.812819
    6        6.605019      6.603852
    7        6.722499      6.721442
    8        7.055176      7.054207
    9        7.394014      7.393022
   10        8.499904      8.498280
   11       13.304234     13.303704
   12       14.047624     14.047071
   13       20.187767     20.187987
   14       21.162565     21.161929
   15       21.337092     21.336876
   16       24.406420     24.406342
 
  0.3157895E+00  0.3157895E+00  0.3742002E-15  0.1749526E-02
    1      -54.453207    -54.456309
    2      -54.452486    -54.455589
    3      -54.437086    -54.440191
    4        1.523784      1.523509
    5        5.481701      5.480797
    6        6.125377      6.124459
    7        6.866720      6.865427
    8        7.218432      7.217464
    9        7.289037      7.288044
   10        9.301122      9.300002
   11       11.379481     11.378828
   12       15.721706     15.721107
   13       18.667313     18.667200
   14       20.932789     20.932730
   15       23.959692     23.959448
   16       24.961360     24.985036
 
  0.3684211E+00  0.3157895E+00  0.3742002E-15  0.3499052E-02
    1      -54.455786    -54.458888
    2      -54.452531    -54.455634
    3      -54.436953    -54.440059
    4        2.067805      2.067521
    5        5.191570      5.190777
    6        6.223495      6.222618
    7        6.849467      6.848196
    8        7.164804      7.163829
    9        7.282186      7.281195