   2   2   0   0
  0.1193074E+02  0.2878939E-09  0.2878939E-09  0.2878939E-09  0.5000000E-15
  1.000000000000000E-004
  CAR 
 unknown system                          
     38.57578033    -60.62333548  301      7.67073235      1.00000000
    -60.623  0.0000E+00  0.0000E+00  0.0000E+00  0.0000E+00
    -60.293  0.0000E+00  0.0000E+00  0.0000E+00  0.0000E+00
    -59.962  0.0000E+00  0.0000E+00  0.0000E+00  0.0000E+00
    -59.631  0.0000E+00  0.0000E+00  0.0000E+00  0.0000E+00
    -59.301  0.0000E+00  0.0000E+00  0.0000E+00  0.0000E+00
    -58.970  0.0000E+00  0.0000E+00  0.0000E+00  0.0000E+00
    -58.639  0.0000E+00  0.0000E+00  0.0000E+00  0.0000E+00
    -58.309  0.0000E+00  0.0000E+00  0.0000E+00  0.0000E+00
    -57.978 -0.2884E-39  0.0000E+00 -0.9535E-40  0.0000E+00
    -57.647 -0.5157E-27  0.0000E+00 -0.1705E-27  0.0000E+00
    -57.317 -0.3952E-17 -0.5848E-42 -0.1307E-17 -0.1934E-42
    -56.986 -0.1233E-09 -0.6216E-29 -0.4076E-10 -0.2055E-29
    -56.655 -0.1596E-04 -0.1194E-18 -0.5277E-05 -0.3949E-19
    -56.325 -0.5859E-02 -0.9420E-11 -0.1942E-02 -0.3115E-11
    -55.994  0.1487E+00 -0.3120E-05  0.4722E-01 -0.1032E-05
    -55.663  0.1612E+00 -0.3422E-02  0.1005E+00 -0.1132E-02
    -55.333 -0.6488E-02  0.8612E-01  0.9837E-01  0.2734E-01
    -55.002 -0.1738E-04  0.2218E+00  0.9836E-01  0.1007E+00
    -54.671 -0.1198E-09 -0.6932E-02  0.9836E-01  0.9839E-01
    -54.341  0.0000E+00 -0.8446E-04  0.9836E-01  0.9836E-01
    -54.010  0.0000E+00 -0.1678E-08  0.9836E-01  0.9836E-01
    -53.679  0.0000E+00 -0.1282E-15  0.9836E-01  0.9836E-01
    -53.349  0.0000E+00  0.0000E+00  0.9836E-01  0.9836E-01
    -53.018  0.0000E+00  0.0000E+00  0.9836E-01  0.9836E-01
    -52.687  0.0000E+00  0.0000E+00  0.9836E-01  0.9836E-01
    -52.357  0.0000E+00  0.0000E+00  0.9836E-01  0.9836E-01
    -52.026  0.0000E+00  0.0000E+00  0.9836E-01  0.9836E-01
    -51.695  0.0000E+00  0.0000E+00  0.9836E-01  0.9836E-01
    -51.365  0.0000E+00  0.0000E+00  0.9836E-01  0.9836E-01
    -51.034  0.0000E+00  0.0000E+00  0.9836E-01  0.9836E-01
    -50.703  0.0000E+00  0.0000E+00  0.9836E-01  0.9836E-01
    -50.373  0.0000E+00  0.0000E+00  0.9836E-01  0.9836E-01
    -50.042  0.0000E+00  0.0000E+00  0.9836E-01  0.9836E-01
    -49.711  0.0000E+00  0.0000E+00  0.9836E-01  0.9836E-01
    -49.381  0.0000E+00  0.0000E+00  0.9836E-01  0.9836E-01
    -49.050  0.0000E+00  0.0000E+00  0.9836E-01  0.9836E-01
    -48.719  0.0000E+00  0.0000E+00  0.9836E-01  0.9836E-01
    -48.389  0.0000E+00  0.0000E+00  0.9836E-01  0.9836E-01
    -48.058  0.0000E+00  0.0000E+00  0.9836E-01  0.9836E-01
    -47.727  0.0000E+00  0.0000E+00  0.9836E-01  0.9836E-01
    -47.397  0.0000E+00  0.0000E+00  0.9836E-01  0.9836E-01
    -47.066  0.0000E+00  0.0000E+00  0.9836E-01  0.9836E-01
    -46.735  0.0000E+00  0.0000E+00  0.9836E-01  0.9836E-01
    -46.405  0.0000E+00  0.0000E+00  0.9836E-01  0.9836E-01
    -46.074  0.0000E+00  0.0000E+00  0.9836E-01  0.9836E-01
    -45.743  0.0000E+00  0.0000E+00  0.9836E-01  0.9836E-01
    -45.413  0.0000E+00  0.0000E+00  0.9836E-01  0.9836E-01
    -45.082  0.0000E+00  0.0000E+00  0.9836E-01  0.9836E-01
    -44.751  0.0000E+00  0.0000E+00  0.9836E-01  0.9836E-01
    -44.421  0.0000E+00  0.0000E+00  0.9836E-01  0.9836E-01
    -44.090  0.0000E+00  0.0000E+00  0.9836E-01  0.9836E-01
    -43.759  0.0000E+00  0.0000E+00  0.9836E-01  0.9836E-01
    -43.429  0.0000E+00  0.0000E+00  0.9836E-01  0.9836E-01
    -43.098  0.0000E+00  0.0000E+00  0.9836E-01  0.9836E-01
    -42.767  0.0000E+00  0.0000E+00  0.9836E-01  0.9836E-01
    -42.437  0.0000E+00  0.0000E+00  0.9836E-01  0.9836E-01
    -42.106  0.0000E+00  0.0000E+00  0.9836E-01  0.9836E-01
    -41.776  0.0000E+00  0.0000E+00  0.9836E-01  0.9836E-01
    -41.445  0.0000E+00  0.0000E+00  0.9836E-01  0.9836E-01
    -41.114  0.0000E+00  0.0000E+00  0.9836E-01  0.9836E-01
    -40.784  0.0000E+00  0.0000E+00  0.9836E-01  0.9836E-01
    -40.453  0.0000E+00  0.0000E+00  0.9836E-01  0.9836E-01
    -40.122  0.0000E+00  0.0000E+00  0.9836E-01  0.9836E-01
    -39.792  0.0000E+00  0.0000E+00  0.9836E-01  0.9836E-01
    -39.461  0.0000E+00  0.0000E+00  0.9836E-01  0.9836E-01
    -39.130  0.0000E+00  0.0000E+00  0.9836E-01  0.9836E-01
    -38.800  0.0000E+00  0.0000E+00  0.9836E-01  0.9836E-01
    -38.469  0.0000E+00  0.0000E+00  0.9836E-01  0.9836E-01
    -38.138  0.0000E+00  0.0000E+00  0.9836E-01  0.9836E-01
    -37.808  0.0000E+00  0.0000E+00  0.9836E-01  0.9836E-01
    -37.477  0.0000E+00  0.0000E+00  0.9836E-01  0.9836E-01
    -37.146  0.0000E+00  0.0000E+00  0.9836E-01  0.9836E-01
    -36.816  0.0000E+00  0.0000E+00  0.9836E-01  0.9836E-01
    -36.485  0.0000E+00  0.0000E+00  0.9836E-01  0.9836E-01
    -36.154  0.0000E+00  0.0000E+00  0.9836E-01  0.9836E-01
    -35.824  0.0000E+00  0.0000E+00  0.9836E-01  0.9836E-01
    -35.493  0.0000E+00  0.0000E+00  0.9836E-01  0.9836E-01
    -35.162  0.0000E+00  0.0000E+00  0.9836E-01  0.9836E-01
    -34.832  0.0000E+00  0.0000E+00  0.9836E-01  0.9836E-01
    -34.501  0.0000E+00  0.0000E+00  0.9836E-01  0.9836E-01
    -34.170  0.0000E+00  0.0000E+00  0.9836E-01  0.9836E-01
    -33.840  0.0000E+00  0.0000E+00  0.9836E-01  0.9836E-01
    -33.509  0.0000E+00  0.0000E+00  0.9836E-01  0.9836E-01
    -33.178  0.0000E+00  0.0000E+00  0.9836E-01  0.9836E-01
    -32.848  0.0000E+00  0.0000E+00  0.9836E-01  0.9836E-01
    -32.517  0.0000E+00  0.0000E+00  0.9836E-01  0.9836E-01
    -32.186  0.0000E+00  0.0000E+00  0.9836E-01  0.9836E-01
    -31.856  0.0000E+00  0.0000E+00  0.9836E-01  0.9836E-01
    -31.525  0.0000E+00  0.0000E+00  0.9836E-01  0.9836E-01
    -31.194  0.0000E+00  0.0000E+00  0.9836E-01  0.9836E-01
    -30.864  0.0000E+00  0.0000E+00  0.9836E-01  0.9836E-01
    -30.533  0.0000E+00  0.0000E+00  0.9836E-01  0.9836E-01
    -30.202  0.0000E+00  0.0000E+00  0.9836E-01  0.9836E-01
    -29.872  0.0000E+00  0.0000E+00  0.9836E-01  0.9836E-01
    -29.541  0.0000E+00  0.0000E+00  0.9836E-01  0.9836E-01
    -29.210  0.0000E+00  0.0000E+00  0.9836E-01  0.9836E-01
    -28.880  0.0000E+00  0.0000E+00  0.9836E-01  0.9836E-01
    -28.549  0.0000E+00  0.0000E+00  0.9836E-01  0.9836E-01
    -28.218  0.0000E+00  0.0000E+00  0.9836E-01  0.9836E-01
    -27.888  0.0000E+00  0.0000E+00  0.9836E-01  0.9836E-01
    -27.557  0.0000E+00  0.0000E+00  0.9836E-01  0.9836E-01
    -27.226  0.0000E+00  0.0000E+00  0.9836E-01  0.9836E-01
    -26.896  0.0000E+00  0.0000E+00  0.9836E-01  0.9836E-01
    -26.565  0.0000E+00  0.0000E+00  0.9836E-01  0.9836E-01
    -26.234  0.0000E+00  0.0000E+00  0.9836E-01  0.9836E-01
    -25.904  0.0000E+00  0.0000E+00  0.9836E-01  0.9836E-01
    -25.573  0.0000E+00  0.0000E+00  0.9836E-01  0.9836E-01
    -25.242  0.0000E+00  0.0000E+00  0.9836E-01  0.9836E-01
    -24.912  0.0000E+00  0.0000E+00  0.9836E-01  0.9836E-01
    -24.581  0.0000E+00  0.0000E+00  0.9836E-01  0.9836E-01
    -24.250  0.0000E+00  0.0000E+00  0.9836E-01  0.9836E-01
    -23.920  0.0000E+00  0.0000E+00  0.9836E-01  0.9836E-01
    -23.589  0.0000E+00  0.0000E+00  0.9836E-01  0.9836E-01
    -23.258  0.0000E+00  0.0000E+00  0.9836E-01  0.9836E-01
    -22.928  0.0000E+00  0.0000E+00  0.9836E-01  0.9836E-01
    -22.597  0.0000E+00  0.0000E+00  0.9836E-01  0.9836E-01
    -22.266  0.0000E+00  0.0000E+00  0.9836E-01  0.9836E-01
    -21.936  0.0000E+00  0.0000E+00  0.9836E-01  0.9836E-01
    -21.605  0.0000E+00  0.0000E+00  0.9836E-01  0.9836E-01
    -21.274  0.0000E+00  0.0000E+00  0.9836E-01  0.9836E-01
    -20.944  0.0000E+00  0.0000E+00  0.9836E-01  0.9836E-01
    -20.613  0.0000E+00  0.0000E+00  0.9836E-01  0.9836E-01
    -20.282  0.0000E+00  0.0000E+00  0.9836E-01  0.9836E-01
    -19.952  0.0000E+00  0.0000E+00  0.9836E-01  0.9836E-01
    -19.621  0.0000E+00  0.0000E+00  0.9836E-01  0.9836E-01
    -19.290  0.0000E+00  0.0000E+00  0.9836E-01  0.9836E-01
    -18.960  0.0000E+00  0.0000E+00  0.9836E-01  0.9836E-01
    -18.629  0.0000E+00  0.0000E+00  0.9836E-01  0.9836E-01
    -18.298  0.0000E+00  0.0000E+00  0.9836E-01  0.9836E-01
    -17.968  0.0000E+00  0.0000E+00  0.9836E-01  0.9836E-01
    -17.637  0.0000E+00  0.0000E+00  0.9836E-01  0.9836E-01
    -17.306  0.0000E+00  0.0000E+00  0.9836E-01  0.9836E-01
    -16.976  0.0000E+00  0.0000E+00  0.9836E-01  0.9836E-01
    -16.645  0.0000E+00  0.0000E+00  0.9836E-01  0.9836E-01
    -16.314  0.0000E+00  0.0000E+00  0.9836E-01  0.9836E-01
    -15.984  0.0000E+00  0.0000E+00  0.9836E-01  0.9836E-01
    -15.653  0.0000E+00  0.0000E+00  0.9836E-01  0.9836E-01
    -15.322  0.0000E+00  0.0000E+00  0.9836E-01  0.9836E-01
    -14.992  0.0000E+00  0.0000E+00  0.9836E-01  0.9836E-01
    -14.661  0.0000E+00  0.0000E+00  0.9836E-01  0.9836E-01
    -14.330  0.0000E+00  0.0000E+00  0.9836E-01  0.9836E-01
    -14.000  0.0000E+00  0.0000E+00  0.9836E-01  0.9836E-01
    -13.669  0.0000E+00  0.0000E+00  0.9836E-01  0.9836E-01
    -13.338  0.0000E+00  0.0000E+00  0.9836E-01  0.9836E-01
    -13.008  0.0000E+00  0.0000E+00  0.9836E-01  0.9836E-01
    -12.677  0.0000E+00  0.0000E+00  0.9836E-01  0.9836E-01
    -12.346  0.0000E+00  0.0000E+00  0.9836E-01  0.9836E-01
    -12.016  0.0000E+00  0.0000E+00  0.9836E-01  0.9836E-01
    -11.685  0.0000E+00  0.0000E+00  0.9836E-01  0.9836E-01
    -11.354  0.0000E+00  0.0000E+00  0.9836E-01  0.9836E-01
    -11.024  0.0000E+00  0.0000E+00  0.9836E-01  0.9836E-01
    -10.693  0.0000E+00  0.0000E+00  0.9836E-01  0.9836E-01
    -10.362  0.0000E+00  0.0000E+00  0.9836E-01  0.9836E-01
    -10.032  0.0000E+00  0.0000E+00  0.9836E-01  0.9836E-01
     -9.701  0.0000E+00  0.0000E+00  0.9836E-01  0.9836E-01
     -9.370  0.0000E+00  0.0000E+00  0.9836E-01  0.9836E-01
     -9.040  0.0000E+00  0.0000E+00  0.9836E-01  0.9836E-01
     -8.709  0.0000E+00  0.0000E+00  0.9836E-01  0.9836E-01
     -8.378  0.0000E+00  0.0000E+00  0.9836E-01  0.9836E-01
     -8.048  0.0000E+00  0.0000E+00  0.9836E-01  0.9836E-01
     -7.717  0.0000E+00  0.0000E+00  0.9836E-01  0.9836E-01
     -7.386  0.0000E+00  0.0000E+00  0.9836E-01  0.9836E-01
     -7.056  0.0000E+00  0.0000E+00  0.9836E-01  0.9836E-01
     -6.725  0.0000E+00  0.0000E+00  0.9836E-01  0.9836E-01
     -6.394  0.0000E+00  0.0000E+00  0.9836E-01  0.9836E-01
     -6.064  0.0000E+00  0.0000E+00  0.9836E-01  0.9836E-01
     -5.733  0.0000E+00  0.0000E+00  0.9836E-01  0.9836E-01
     -5.402  0.0000E+00  0.0000E+00  0.9836E-01  0.9836E-01
     -5.072  0.0000E+00  0.0000E+00  0.9836E-01  0.9836E-01
     -4.741  0.0000E+00  0.0000E+00  0.9836E-01  0.9836E-01
     -4.411  0.0000E+00  0.0000E+00  0.9836E-01  0.9836E-01
     -4.080  0.0000E+00  0.0000E+00  0.9836E-01  0.9836E-01
     -3.749  0.0000E+00  0.0000E+00  0.9836E-01  0.9836E-01
     -3.419  0.0000E+00  0.0000E+00  0.9836E-01  0.9836E-01
     -3.088 -0.2471E-42 -0.1470E-41  0.9836E-01  0.9836E-01
     -2.757 -0.3585E-30 -0.1550E-29  0.9836E-01  0.9836E-01
     -2.427 -0.2235E-20 -0.7039E-20  0.9836E-01  0.9836E-01
     -2.096 -0.6036E-13 -0.1389E-12  0.9836E-01  0.9836E-01
     -1.765 -0.8099E-08 -0.1366E-07  0.9836E-01  0.9836E-01
     -1.435 -0.4454E-05 -0.5247E-05  0.9836E-01  0.9836E-01
     -1.104  0.9643E-04  0.1177E-03  0.9839E-01  0.9840E-01
     -0.773  0.5705E-03  0.5919E-03  0.9858E-01  0.9859E-01
     -0.443  0.8978E-03  0.9058E-03  0.9888E-01  0.9889E-01
     -0.112  0.1174E-02  0.1186E-02  0.9926E-01  0.9929E-01
      0.219  0.1302E-02  0.1306E-02  0.9970E-01  0.9972E-01
      0.549  0.1615E-02  0.1589E-02  0.1002E+00  0.1002E+00
      0.880  0.1814E-02  0.1800E-02  0.1008E+00  0.1008E+00
      1.211  0.2103E-02  0.2058E-02  0.1015E+00  0.1015E+00
      1.541  0.2456E-02  0.2375E-02  0.1023E+00  0.1023E+00
      1.872  0.2674E-02  0.2519E-02  0.1032E+00  0.1031E+00
      2.203  0.3288E-02  0.3003E-02  0.1043E+00  0.1041E+00
      2.533  0.3874E-02  0.3446E-02  0.1056E+00  0.1053E+00
      2.864  0.5417E-02  0.4238E-02  0.1074E+00  0.1067E+00
      3.195  0.1020E-01  0.5399E-02  0.1108E+00  0.1085E+00
      3.525  0.1480E-01  0.9548E-02  0.1156E+00  0.1116E+00
      3.856  0.2251E-01  0.1316E-01  0.1231E+00  0.1160E+00
      4.187  0.2545E-01  0.2007E-01  0.1315E+00  0.1226E+00
      4.517  0.2641E-01  0.2319E-01  0.1402E+00  0.1303E+00
      4.848  0.5113E-01  0.1359E-01  0.1571E+00  0.1348E+00
      5.179  0.4751E-01  0.3883E-01  0.1729E+00  0.1476E+00
      5.509  0.4390E-01  0.4685E-01  0.1874E+00  0.1631E+00
      5.840  0.1587E-01  0.4849E-01  0.1926E+00  0.1791E+00
      6.171  0.1792E-01  0.3234E-01  0.1985E+00  0.1898E+00
      6.501  0.4016E-01  0.1277E-01  0.2118E+00  0.1940E+00
      6.832  0.6939E-01  0.1833E-01  0.2348E+00  0.2001E+00
      7.163  0.7346E-01  0.4559E-01  0.2591E+00  0.2152E+00
      7.493  0.3126E-01  0.7725E-01  0.2694E+00  0.2407E+00
      7.824  0.9416E-02  0.5524E-01  0.2725E+00  0.2590E+00
      8.155  0.5088E-02  0.2973E-01  0.2742E+00  0.2688E+00
      8.485  0.5376E-02  0.1321E-01  0.2760E+00  0.2732E+00
      8.816  0.5382E-02  0.6194E-02  0.2777E+00  0.2752E+00
      9.147  0.4574E-02  0.5786E-02  0.2793E+00  0.2771E+00
      9.477  0.4671E-02  0.5350E-02  0.2808E+00  0.2789E+00
      9.808  0.4794E-02  0.5384E-02  0.2824E+00  0.2807E+00
     10.139  0.3752E-02  0.4755E-02  0.2836E+00  0.2823E+00
     10.469  0.4543E-02  0.4235E-02  0.2851E+00  0.2837E+00
     10.800  0.3372E-02  0.4669E-02  0.2862E+00  0.2852E+00
     11.131  0.3846E-02  0.3390E-02  0.2875E+00  0.2863E+00
     11.461  0.3240E-02  0.4341E-02  0.2886E+00  0.2878E+00
     11.792  0.3031E-02  0.2972E-02  0.2896E+00  0.2888E+00
     12.123  0.2405E-02  0.3261E-02  0.2904E+00  0.2898E+00
     12.453  0.3193E-02  0.2511E-02  0.2914E+00  0.2907E+00
     12.784  0.1942E-02  0.3316E-02  0.2921E+00  0.2918E+00
     13.115  0.1695E-02  0.1297E-02  0.2926E+00  0.2922E+00
     13.445  0.1830E-02  0.2224E-02  0.2932E+00  0.2929E+00
     13.776  0.1675E-02  0.1907E-02  0.2938E+00  0.2936E+00
     14.107  0.1023E-02  0.1148E-02  0.2941E+00  0.2939E+00
     14.437  0.4407E-02  0.8993E-03  0.2956E+00  0.2942E+00
     14.768  0.6796E-02  0.5285E-02  0.2978E+00  0.2960E+00
     15.099  0.7389E-02  0.7500E-02  0.3003E+00  0.2985E+00
     15.429  0.5187E-02  0.7157E-02  0.3020E+00  0.3008E+00
     15.760  0.4807E-02  0.5102E-02  0.3036E+00  0.3025E+00
     16.091  0.6339E-02  0.5939E-02  0.3057E+00  0.3045E+00
     16.421  0.3414E-02  0.5123E-02  0.3068E+00  0.3062E+00
     16.752  0.6627E-02  0.4335E-02  0.3090E+00  0.3076E+00
     17.083  0.5153E-02  0.6759E-02  0.3107E+00  0.3098E+00
     17.413  0.6000E-02  0.5903E-02  0.3127E+00  0.3118E+00
     17.744  0.5674E-02  0.5411E-02  0.3146E+00  0.3136E+00
     18.075  0.6737E-02  0.6907E-02  0.3168E+00  0.3159E+00
     18.405  0.5118E-02  0.5555E-02  0.3185E+00  0.3177E+00
     18.736  0.6170E-02  0.6057E-02  0.3205E+00  0.3197E+00
     19.067  0.5907E-02  0.5579E-02  0.3225E+00  0.3215E+00
     19.397  0.5458E-02  0.5908E-02  0.3243E+00  0.3235E+00
     19.728  0.5851E-02  0.6023E-02  0.3262E+00  0.3255E+00
     20.059  0.5361E-02  0.5499E-02  0.3280E+00  0.3273E+00
     20.389  0.5415E-02  0.5005E-02  0.3298E+00  0.3290E+00
     20.720  0.6048E-02  0.6424E-02  0.3318E+00  0.3311E+00
     21.051  0.4931E-02  0.5593E-02  0.3334E+00  0.3329E+00
     21.381  0.5165E-02  0.4265E-02  0.3351E+00  0.3343E+00
     21.712  0.5434E-02  0.5904E-02  0.3369E+00  0.3363E+00
     22.043  0.6029E-02  0.6174E-02  0.3389E+00  0.3383E+00
     22.373  0.3948E-02  0.4320E-02  0.3402E+00  0.3398E+00
     22.704  0.5261E-02  0.4706E-02  0.3420E+00  0.3413E+00
     23.035  0.6022E-02  0.6054E-02  0.3440E+00  0.3433E+00
     23.365  0.4600E-02  0.5080E-02  0.3455E+00  0.3450E+00
     23.696  0.4748E-02  0.4588E-02  0.3470E+00  0.3465E+00
     24.027  0.5919E-02  0.5602E-02  0.3490E+00  0.3484E+00
     24.357  0.6968E-02  0.7013E-02  0.3513E+00  0.3507E+00
     24.688  0.5417E-02  0.5952E-02  0.3531E+00  0.3527E+00
     25.019  0.6444E-02  0.6064E-02  0.3552E+00  0.3547E+00
     25.349  0.6971E-02  0.6874E-02  0.3575E+00  0.3569E+00
     25.680  0.7817E-02  0.8167E-02  0.3601E+00  0.3596E+00
     26.011  0.6757E-02  0.7168E-02  0.3624E+00  0.3620E+00
     26.341  0.7308E-02  0.6914E-02  0.3648E+00  0.3643E+00
     26.672  0.8047E-02  0.8270E-02  0.3674E+00  0.3670E+00
     27.003  0.8506E-02  0.8583E-02  0.3702E+00  0.3699E+00
     27.333  0.7497E-02  0.7707E-02  0.3727E+00  0.3724E+00
     27.664  0.8552E-02  0.8166E-02  0.3756E+00  0.3751E+00
     27.995  0.8078E-02  0.7996E-02  0.3782E+00  0.3778E+00
     28.325  0.8788E-02  0.9362E-02  0.3811E+00  0.3809E+00
     28.656  0.4939E-02  0.4987E-02  0.3828E+00  0.3825E+00
     28.987  0.7692E-02  0.7199E-02  0.3853E+00  0.3849E+00
     29.317  0.5964E-02  0.6455E-02  0.3873E+00  0.3870E+00
     29.648  0.4804E-02  0.5132E-02  0.3889E+00  0.3887E+00
     29.979  0.4637E-02  0.4024E-02  0.3904E+00  0.3901E+00
     30.309  0.3761E-02  0.4568E-02  0.3916E+00  0.3916E+00
     30.640  0.2496E-02  0.2426E-02  0.3925E+00  0.3924E+00
     30.971  0.1564E-02  0.1840E-02  0.3930E+00  0.3930E+00
     31.301  0.5171E-03  0.4093E-03  0.3932E+00  0.3931E+00
     31.632  0.3031E-03  0.4386E-03  0.3933E+00  0.3933E+00
     31.963  0.2609E-03  0.3068E-03  0.3933E+00  0.3934E+00
     32.293  0.6579E-04  0.3567E-04  0.3934E+00  0.3934E+00
     32.624  0.3780E-04  0.3484E-04  0.3934E+00  0.3934E+00
     32.954  0.4853E-04  0.8809E-04  0.3934E+00  0.3934E+00
     33.285  0.1024E-03  0.5996E-04  0.3934E+00  0.3934E+00
     33.616  0.2784E-04  0.3955E-04  0.3934E+00  0.3934E+00
     33.946  0.1386E-04  0.5967E-05  0.3934E+00  0.3934E+00
     34.277  0.6401E-05  0.3856E-05  0.3934E+00  0.3934E+00
     34.608 -0.2118E-06 -0.1592E-06  0.3934E+00  0.3934E+00
     34.938 -0.3184E-08 -0.1333E-09  0.3934E+00  0.3934E+00
     35.269 -0.4730E-13 -0.2718E-15  0.3934E+00  0.3934E+00
     35.600 -0.3210E-20  0.0000E+00  0.3934E+00  0.3934E+00
     35.930  0.0000E+00  0.0000E+00  0.3934E+00  0.3934E+00
     36.261  0.0000E+00  0.0000E+00  0.3934E+00  0.3934E+00
     36.592  0.0000E+00  0.0000E+00  0.3934E+00  0.3934E+00
     36.922  0.0000E+00  0.0000E+00  0.3934E+00  0.3934E+00
     37.253  0.0000E+00  0.0000E+00  0.3934E+00  0.3934E+00
     37.584  0.0000E+00  0.0000E+00  0.3934E+00  0.3934E+00
     37.914  0.0000E+00  0.0000E+00  0.3934E+00  0.3934E+00
     38.245  0.0000E+00  0.0000E+00  0.3934E+00  0.3934E+00
     38.576  0.0000E+00  0.0000E+00  0.3934E+00  0.3934E+00
