    2    2   61    2
  0.1193074E+02  0.2878939E-09  0.2878939E-09  0.2878939E-09  0.5000000E-15
  1.000000000000000E-004
  CAR 
 unknown system                          
     32    220     24
 
  0.3742002E-15  0.3742002E-15  0.3742002E-15  0.1457938E-03
    1      -56.058473    -55.339237
    2      -56.058473    -55.339237
    3      -56.058473    -55.339237
    4      -55.895362    -55.171741
    5      -55.895362    -55.171741
    6      -55.895362    -55.171741
    7       -1.219540     -1.238823
    8        3.499290      3.857752
    9        3.499290      3.857752
   10        5.385067      6.054099
   11        5.385067      6.054099
   12        5.385067      6.054099
   13        6.785237      7.325921
   14        6.785237      7.325921
   15        7.396547      8.151937
   16        7.396547      8.151937
   17        7.396547      8.151937
   18       17.388694     17.414163
   19       17.388694     17.414163
   20       17.388694     17.414163
   21       23.202814     23.330896
   22       23.202814     23.330896
   23       27.130110     27.319515
   24       34.066730     33.952735
 
  0.5263158E-01  0.3742002E-15  0.3742002E-15  0.8747631E-03
    1      -56.058183    -55.338953
    2      -56.057303    -55.338034
    3      -56.057303    -55.338034
    4      -55.897297    -55.173744
    5      -55.896404    -55.172810
    6      -55.896404    -55.172810
    7       -1.162220     -1.181439
    8        3.518270      3.875735
    9        3.521765      3.881274
   10        5.384631      6.053067
   11        5.384631      6.053067
   12        5.398486      6.068054
   13        6.763862      7.303221
   14        6.793653      7.334886
   15        7.356520      8.107688
   16        7.356520      8.107688
   17        7.382580      8.137333
   18       16.913197     16.953332
   19       17.490807     17.520663
   20       17.490807     17.520663
   21       23.224080     23.351027
   22       23.569863     23.686278
   23       27.341703     27.528351
   24       33.565812     33.482850
 
  0.1052632E+00  0.3742002E-15  0.3742002E-15  0.8747631E-03
    1      -56.057240    -55.338027
    2      -56.053807    -55.334442
    3      -56.053807    -55.334442
    4      -55.902199    -55.178835
    5      -55.899442    -55.175936
    6      -55.899442    -55.175936
    7       -0.991185     -1.010181
    8        3.572249      3.926354
    9        3.588641      3.951283
   10        5.384187      6.050907
   11        5.384187      6.050907
   12        5.438397      6.109564
   13        6.700123      7.235534
   14        6.818554      7.361340
   15        7.242548      7.982279
   16        7.242548      7.982279
   17        7.341114      8.093977
   18       15.798722     15.866415
   19       17.790810     17.832590
   20       17.790810     17.832590
   21       23.288506     23.412059
   22       24.274981     24.376922
   23       28.064227     28.238919
   24       32.485736     32.397471
 
  0.1578947E+00  0.3742002E-15  0.3742002E-15  0.8747631E-03
    1      -56.055488    -55.336293
    2      -56.048095    -55.328575
    3      -56.048095    -55.328575
    4      -55.911673    -55.188629
    5      -55.904704    -55.181333
    6      -55.904704    -55.181333
    7       -0.709571     -0.728067
    8        3.652013      3.999230
    9        3.698246      4.066077
   10        5.385960      6.050067
   11        5.385960      6.050067
   12        5.503780      6.177579
   13        6.595233      7.124165
   14        6.858061      7.403047
   15        7.070380      7.794383
   16        7.070380      7.794383
   17        7.273307      8.023089
   18       14.449214     14.545824
   19       18.271956     18.330256
   20       18.271956     18.330256
   21       23.397951     23.515878
   22       24.837921     24.935325
   23       29.385175     29.538773
   24       31.295129     31.221299
 
  0.2105263E+00  0.3742002E-15  0.3742002E-15  0.8747631E-03
    1      -56.052227    -55.333037
    2      -56.040321    -55.320592
    3      -56.040321    -55.320592
    4      -55.923599    -55.200973
    5      -55.911298    -55.188103
    6      -55.911298    -55.188103
    7       -0.322987     -0.340449
    8        3.741571      4.076202
    9        3.847772      4.222797
   10        5.393972      6.054894
   11        5.393972      6.054894
   12        5.593020      6.270430
   13        6.451622      6.971704
   14        6.860443      7.458111
   15        6.860443      7.567512
   16        6.910884      7.567512
   17        7.181054      7.926662
   18       13.060800     13.189126
   19       18.912221     18.988508
   20       18.912221     18.988508
   21       23.555468     23.665591
   22       25.210846     25.304486
   23       30.140312     30.081538
   24       31.175581     31.309354
 
  0.2631579E+00  0.3742002E-15  0.3742002E-15  0.8747631E-03
    1      -56.047954    -55.328729
    2      -56.030659    -55.310667
    3      -56.030659    -55.310667
    4      -55.937830    -55.215674
    5      -55.920057    -55.197091
    6      -55.920057    -55.197091
    7        0.159734      0.144370
    8        3.816374      4.129319
    9        4.033336      4.417472
   10        5.412619      6.070198
   11        5.412619      6.070198
   12        5.703784      6.385713
   13        6.272051      6.781144
   14        6.632888      7.324097
   15        6.632888      7.324097
   16        6.976427      7.524895
   17        7.067006      7.807481
   18       11.725154     11.892214
   19       19.689163     19.782583
   20       19.689163     19.782583
   21       23.765294     23.865521
   22       25.508542     25.594507
   23       29.069574     29.026496
   24       30.293747     30.392466
 
  0.3157895E+00  0.3742002E-15  0.3742002E-15  0.8747631E-03
    1      -56.042364    -55.323076
    2      -56.019623    -55.299327
    3      -56.019623    -55.299327
    4      -55.953380    -55.231726
    5      -55.930316    -55.207618
    6      -55.930316    -55.207618
    7        0.724847      0.713702
    8        3.842099      4.119787
    9        4.249952      4.644987
   10        5.446986      6.101512
   11        5.446986      6.101512
   12        5.833242      6.520498
   13        6.061014      6.557317
   14        6.404646      7.082327
   15        6.404646      7.082327
   16        6.934378      7.604624
   17        7.057593      7.668927
   18       10.500340     10.717958
   19       20.582601     20.690928
   20       20.582601     20.690928
   21       24.032746     24.121111
   22       25.816090     25.891335
   23       28.099685     28.073139
   24       28.949731     29.068525
 
  0.3684211E+00  0.3742002E-15  0.3742002E-15  0.8747631E-03
    1      -56.034790    -55.315374
    2      -56.007480    -55.286856
    3      -56.007480    -55.286856
    4      -55.969758    -55.248624
    5      -55.941438    -55.219039
    6      -55.941438    -55.219039
    7        1.351062      1.348328
    8        3.773348      3.998749
    9        4.491755      4.899278
   10        5.501927      6.154150
   11        5.501927      6.154150
   12        5.823966      6.306098
   13        5.978139      6.671406
   14        6.188907      6.855929
   15        6.188907      6.855929
   16        6.786814      7.514826
   17        7.164447      7.704594
   18        9.437499      9.720822
   19       21.575548     21.695894
   20       21.575548     21.695894
   21       24.364124     24.438850
   22       26.184566     26.247780
   23       27.235303     27.225948
   24       27.608024     27.738237
 
  0.4210526E+00  0.3742002E-15  0.3742002E-15  0.8747631E-03
    1      -56.024452    -55.304850
    2      -55.993887    -55.272896
    3      -55.993887    -55.272896
    4      -55.985745    -55.265098
    5      -55.954083    -55.232018
    6      -55.954083    -55.232018
    7        2.004927      2.018623
    8        3.560702      3.720051
    9        4.752079      5.173420
   10        5.567049      6.034086
   11        5.581705      6.232830
   12        5.581705      6.232830
   13        5.994771      6.654044
   14        5.994771      6.654044
   15        6.134304      6.834135
   16        6.628710      7.349783
   17        7.320043      7.843363
   18        8.584939      8.945496
   19       22.654231     22.783481
   20       22.654231     22.783481
   21       24.766517     24.826077
   22       26.294171     26.430048
   23       26.294172     26.430052
   24       26.647754     26.699180
 
  0.4736842E+00  0.3742002E-15  0.3742002E-15  0.8747631E-03
    1      -56.013604    -55.293747
    2      -56.000210    -55.279997
    3      -55.980689    -55.259335
    4      -55.980689    -55.259335
    5      -55.967231    -55.245517
    6      -55.967231    -55.245517
    7        2.635306      2.679391
    8        3.174636      3.268418
    9        5.023249      5.459402
   10        5.297563      5.749105
   11        5.689621      6.341289
   12        5.689621      6.341289
   13        5.827333      6.481593
   14        5.827333      6.481593
   15        6.297782      7.004559
   16        6.464094      7.178018
   17        7.567369      8.057420
   18        7.968663      8.403323
   19       23.806876     23.941788
   20       23.806876     23.941788
   21       25.023446     25.160667
   22       25.023446     25.160667
   23       25.247383     25.290561
   24       25.814431     25.840390
 
  0.5263158E-01  0.5263158E-01  0.3742002E-15  0.1749526E-02
    1      -56.059998    -55.340824
    2      -56.056139    -55.336839
    3      -56.054030    -55.334681
    4      -55.901361    -55.177925
    5      -55.897431    -55.173863
    6      -55.895308    -55.171690
    7       -1.105061     -1.124202
    8        3.539448      3.896991
    9        3.541846      3.901368
   10        5.358999      6.026149
   11        5.383589      6.051219
   12        5.436987      6.107796
   13        6.758440      7.297610
   14        6.787257      7.328119
   15        7.284357      8.030075
   16        7.316521      8.063344
   17        7.402432      8.158082
   18       16.926490     16.970843
   19       17.095936     17.140439
   20       17.591305     17.625243
   21       23.413420     23.534145
   22       23.793005     23.902271
   23       27.537035     27.721746
   24       33.048355     32.967654
 
  0.1052632E+00  0.5263158E-01  0.3742002E-15  0.3499052E-02
    1      -56.060872    -55.341753
    2      -56.052691    -55.333296
    3      -56.048810    -55.329330
    4      -55.908277    -55.185082
    5      -55.900423    -55.176942
    6      -55.896351    -55.172768
    7       -0.934652     -0.953519
    8        3.594474      3.949275
    9        3.606990      3.969156
   10        5.337840      6.002853
   11        5.381433      6.046701
   12        5.497306      6.170167
   13        6.703207      7.239305
   14        6.807046      7.349236
   15        7.148251      7.882417
   16        7.202729      7.937808
   17        7.387612      8.142278
   18       15.873813     15.945054
   19       17.314366     17.371036
   20       17.886846     17.931923
   21       23.539743     23.655670
   22       24.500830     24.595439
   23       28.213679     28.388578
   24       31.940032     31.888293
 
  0.1578947E+00  0.5263158E-01  0.3742002E-15  0.3499052E-02
    1      -56.060419    -55.341339
    2      -56.047058    -55.327508
    3      -56.041953    -55.322299
    4      -55.918506    -55.195643
    5      -55.905565    -55.182220
    6      -55.900004    -55.176534
    7       -0.654104     -0.672372
    8        3.674648      4.022875
    9        3.714835      4.082099
   10        5.325968      5.988295
   11        5.380549      6.042037
   12        5.575843      6.251459
   13        6.603619      7.134236
   14        6.846965      7.391511
   15        6.966496      7.685760
   16        7.031583      7.750562
   17        7.335830      8.087574
   18       14.522386     14.622286
   19       17.768456     17.841301
   20       18.361633     18.422250
   21       23.669305     23.779511
   22       25.118780     25.208428
   23       29.486069     29.641051
   24       30.696287     30.666789
 
  0.2105263E+00  0.5263158E-01  0.3742002E-15  0.3499052E-02
    1      -56.058205    -55.339141
    2      -56.039303    -55.319546
    3      -56.033156    -55.313278
    4      -55.931259    -55.208812
    5      -55.912285    -55.189117
    6      -55.906236    -55.182938
    7       -0.269193     -0.286253
    8        3.764429      4.100410
    9        3.861765      4.236228
   10        5.324801      5.984030
   11        5.384456      6.040764
   12        5.673381      6.352590
   13        6.466812      6.990323
   14        6.754123      7.447673
   15        6.824522      7.457467
   16        6.900715      7.526254
   17        7.253436      8.000928
   18       13.130889     13.262237
   19       18.371496     18.461574
   20       18.994715     19.072399
   21       23.845398     23.948016
   22       25.537904     25.624678
   23       29.459940     29.453481
   24       31.249914     31.382005
 
  0.2631579E+00  0.5263158E-01  0.3742002E-15  0.3499052E-02
    1      -56.054573    -55.335485
    2      -56.029677    -55.309656
    3      -56.023183    -55.303043
    4      -55.945884    -55.223909
    5      -55.920709    -55.197761
    6      -55.914285    -55.191210
    7        0.211092      0.196425
    8        3.838904      4.153641
    9        4.043682      4.427343
   10        5.337208      5.993225
   11        5.396834      6.045975
   12        5.789270      6.472935
   13        6.297640      6.813665
   14        6.527664      7.216023
   15        6.602861      7.288570
   16        6.967186      7.515503
   17        7.145754      7.887999
   18       11.791288     11.960935
   19       19.097457     19.203233
   20       19.764431     19.858502
   21       24.078025     24.171229
   22       25.875745     25.956168
   23       28.268728     28.287501
   24       30.349636     30.386200
 
  0.3157895E+00  0.5263158E-01  0.3742002E-15  0.3499052E-02
    1      -56.049562    -55.330418
    2      -56.019104    -55.298795
    3      -56.011922    -55.291485
    4      -55.961749    -55.240279
    5      -55.930624    -55.207937
    6      -55.924027    -55.201215
    7        0.772739      0.762784
    8        3.863319      4.143485
    9        4.255336      4.650098
   10        5.366969      6.020066
   11        5.418968      6.055820
   12        5.921811      6.610736
   13        6.104085      6.616112
   14        6.301991      6.977478
   15        6.385507      7.057728
   16        7.017325      7.596143
   17        7.049245      7.753548
   18       10.560405     10.779743
   19       19.923283     20.041530
   20       20.651083     20.759507
   21       24.375326     24.457543
   22       26.225203     26.296576
   23       27.124336     27.170708
   24       29.000908     29.164586
 
  0.3684211E+00  0.5263158E-01  0.3742002E-15  0.3499052E-02
    1      -56.042128    -55.322860
    2      -56.006759    -55.286113
    3      -55.999306    -55.278538
    4      -55.978062    -55.257099
    5      -55.942078    -55.219689
    6      -55.935040    -55.212525
    7        1.394101      1.393353
    8        3.792616      4.021599
    9        4.490316      4.898013
   10        5.418209      6.045557
   11        5.441672      6.069111
   12        5.905181      6.433064
   13        6.068176      6.754845
   14        6.089570      6.763064
   15        6.187170      6.848749
   16        6.872912      7.602536
   17        7.157553      7.697431
   18        9.487799      9.771401
   19       20.828895     20.955303
   20       21.638124     21.758223
   21       24.746704     24.816828
   22       26.014919     26.088991
   23       26.641111     26.702701
   24       27.657012     27.787160
 
  0.4210526E+00  0.5263158E-01  0.3742002E-15  0.3499052E-02
    1      -56.032674    -55.313224
    2      -55.993988    -55.273503
    3      -55.993764    -55.272771
    4      -55.986543    -55.265429
    5      -55.954474    -55.232413
    6      -55.947238    -55.225049
    7        2.041475      2.058330
    8        3.579233      3.743463
    9        4.740697      5.163260
   10        5.407876      5.930041
   11        5.494850      6.144721
   12        5.767072      6.359687
   13        5.898631      6.556446
   14        6.016563      6.669769
   15        6.224942      6.926356
   16        6.716805      7.439444
   17        7.316822      7.839473
   18        8.620717      8.979985
   19       21.796587     21.925948
   20       22.711718     22.840507
   21       24.927819     25.026121
   22       25.203602     25.261299
   23       26.343198     26.478741
   24       27.158100     27.210896
 
  0.4736842E+00  0.5263158E-01  0.3742002E-15  0.3499052E-02
    1      -56.021911    -55.302205
    2      -56.008408    -55.288352
    3      -55.980759    -55.259406
    4      -55.973566    -55.252098
    5      -55.967290    -55.245573
    6      -55.960173    -55.238341
    7        2.664133      2.712749
    8        3.196475      3.295621
    9        4.995713      5.435944
   10        5.236488      5.702029
   11        5.599738      6.250164
   12        5.734391      6.387349
   13        5.778536      6.412065
   14        5.877379      6.522974
   15        6.388274      7.096612
   16        6.553638      7.269115
   17        7.572358      8.061048
   18        7.987607      8.420396
   19       22.810868     22.937088
   20       23.858149     23.974219
   21       23.860343     23.994719
   22       25.074049     25.210781
   23       25.759668     25.805796
   24       26.429958     26.466908
 
  0.1052632E+00  0.1052632E+00  0.3742002E-15  0.1749526E-02
    1      -56.064419    -55.345424
    2      -56.049372    -55.329886
    3      -56.041172    -55.321497
    4      -55.918030    -55.195134
    5      -55.903302    -55.179902
    6      -55.894694    -55.171076
    7       -0.766108     -0.784537
    8        3.658873      4.015431
    9        3.660539      4.021241
   10        5.284108      5.945891
   11        5.374399      6.035399
   12        5.589230      6.265340
   13        6.690709      7.227700
   14        6.793928      7.335379
   15        6.978003      7.699949
   16        7.090194      7.812767
   17        7.419504      8.175908
   18       15.874433     15.951678
   19       16.439281     16.527740
   20       18.170012     18.224186
   21       23.823962     23.932912
   22       25.230559     25.307125
   23       28.746944     28.919063
   24       30.773447     30.761241
 
  0.1578947E+00  0.1052632E+00  0.3742002E-15  0.3499052E-02
    1      -56.066480    -55.347586
    2      -56.043917    -55.324282
    3      -56.031865    -55.311958
    4      -55.930531    -55.208026
    5      -55.908080    -55.184802
    6      -55.895989    -55.172419
    7       -0.488945     -0.506451
    8        3.737174      4.091103
    9        3.765972      4.128518
   10        5.242259      5.900492
   11        5.366097      6.020113
   12        5.696049      6.375932
   13        6.620810      7.155919
   14        6.772352      7.363278
   15        6.819952      7.479871
   16        6.923286      7.628890
   17        7.409781      8.165407
   18       14.705593     14.811749
   19       16.661570     16.764081
   20       18.626981     18.694098
   21       24.006713     24.109527
   22       26.014661     26.082189
   23       29.458238     29.473171
   24       29.840959     29.999423
 
  0.2105263E+00  0.1052632E+00  0.3742002E-15  0.3499052E-02
    1      -56.066769    -55.347946
    2      -56.036479    -55.316644
    3      -56.021592    -55.301426
    4      -55.944948    -55.222896
    5      -55.914507    -55.191396
    6      -55.899811    -55.176355
    7       -0.109229     -0.124954
    8        3.824146      4.167218
    9        3.908183      4.277607
   10        5.215357      5.869949
   11        5.360255      6.004220
   12        5.816801      6.501008
   13        6.506600      7.038747
   14        6.546699      7.239560
   15        6.725785      7.413468
   16        6.872635      7.418795
   17        7.361481      8.114143
   18       13.320923     13.458372
   19       17.197432     17.314530
   20       19.239606     19.321270
   21       24.196466     24.291539
   22       26.581124     26.647584
   23       28.141102     28.179161
   24       31.485501     31.576671
 
  0.2631579E+00  0.1052632E+00  0.3742002E-15  0.3499052E-02
    1      -56.065208    -55.346418
    2      -56.027388    -55.307303
    3      -56.010245    -55.289786
    4      -55.960923    -55.239367
    5      -55.922559    -55.199659
    6      -55.905994    -55.182718
    7        0.363348      0.350997
    8        3.894572      4.217954
    9        4.081997      4.460706
   10        5.206324      5.857424
   11        5.359267      5.988562
   12        5.950577      6.639721
   13        6.315084      6.895426
   14        6.364376      6.994414
   15        6.522877      7.194251
   16        6.940535      7.488436
   17        7.280121      8.028204
   18       11.974263     12.148880
   19       17.856407     17.986129
   20       19.988515     20.084476
   21       24.428327     24.513782
   22       26.863635     26.923400
   23       27.029941     27.094030
   24       30.345568     30.310200
 
  0.3157895E+00  0.1052632E+00  0.3742002E-15  0.3499052E-02
    1      -56.061604    -55.342784
    2      -56.016940    -55.296566
    3      -55.998333    -55.277563
    4      -55.977461    -55.256416
    5      -55.932242    -55.209595
    6      -55.914079    -55.191031
    7        0.913950      0.907952
    8        3.912665      4.203745
    9        4.281757      4.671952
   10        5.218421      5.866486
   11        5.360608      5.966527
   12        6.089923      6.744960
   13        6.095999      6.757695
   14        6.208383      6.790706
   15        6.337310      6.995294
   16        7.024634      7.571206
   17        7.171580      7.913938
   18       10.727982     10.949958
   19       18.608683     18.747195
   20       20.855589     20.964362
   21       24.717713     24.791800
   22       25.638238     25.718344
   23       27.475785     27.535150
   24       29.152225     29.276391
 
  0.3684211E+00  0.1052632E+00  0.3742002E-15  0.3499052E-02
    1      -56.055594    -55.336682
    2      -56.005310    -55.284618
    3      -55.994278    -55.273745
    4      -55.985762    -55.264666
    5      -55.943291    -55.220930
    6      -55.923903    -55.201126
    7        1.519668      1.525535
    8        3.835115      4.078380
    9        4.500318      4.904199
   10        5.255060      5.900888
   11        5.348649      5.915594
   12        5.881236      6.539818
   13        6.063131      6.619385
   14        6.186189      6.833651
   15        6.250739      6.951595
   16        7.041610      7.676133
   17        7.137004      7.777472
   18        9.629197      9.911754
   19       19.437035     19.579732
   20       21.825036     21.944429
   21       24.467491     24.566222
   22       25.076948     25.138303
   23       27.803353     27.931830
   24       27.987008     28.035244
 
  0.4210526E+00  0.1052632E+00  0.3742002E-15  0.3499052E-02
    1      -56.047326    -55.328254
    2      -56.010325    -55.290262
    3      -55.992880    -55.271854
    4      -55.972805    -55.251367
    5      -55.955171    -55.233124
    6      -55.935167    -55.212698
    7        2.145915      2.173318
    8        3.621309      3.803282
    9        4.728118      5.148334
   10        5.287460      5.801946
   11        5.319476      5.964227
   12        5.696272      6.348114
   13        5.969505      6.558483
   14        6.075188      6.713730
   15        6.411936      7.119435
   16        6.895593      7.624481
   17        7.306998      7.827601
   18        8.722942      9.077379
   19       20.330462     20.472589
   20       22.883612     23.011081
   21       23.351424     23.466221
   22       25.518492     25.566366
   23       26.488710     26.623209
   24       27.449122     27.459393
 
  0.4736842E+00  0.1052632E+00  0.3742002E-15  0.3499052E-02
    1      -56.037005    -55.317685
    2      -56.024677    -55.305027
    3      -55.980287    -55.258918
    4      -55.967710    -55.246002
    5      -55.959784    -55.237999
    6      -55.946972    -55.224831
    7        2.743083      2.806919
    8        3.251556      3.369110
    9        4.951562      5.392344
   10        5.148872      5.618847
   11        5.413983      6.059164
   12        5.539707      6.187154
   13        5.954987      6.570078
   14        5.998256      6.627415
   15        6.575945      7.290444
   16        6.738711      7.460405
   17        7.586919      8.071292
   18        8.042931      8.469656
   19       21.282421     21.419420
   20       22.289761     22.417489
   21       24.020062     24.152876
   22       25.224788     25.360047
   23       26.054389     26.088785
   24       26.695529     26.717213
 
  0.1578947E+00  0.1578947E+00  0.3742002E-15  0.1749526E-02
    1      -56.071252    -55.352532
    2      -56.038753    -55.318974
    3      -56.020953    -55.300760
    4      -55.944823    -55.222754
    5      -55.912435    -55.189274
    6      -55.894270    -55.170676
    7       -0.217835     -0.233777
    8        3.814476      4.180566
    9        3.864151      4.214981
   10        5.169517      5.823236
   11        5.347787      5.990100
   12        5.830913      6.515761
   13        6.547438      7.155694
   14        6.615400      7.241272
   15        6.766194      7.348242
   16        6.805687      7.453932
   17        7.445937      8.203513
   18       14.631135     14.737755
   19       15.740974     15.883314
   20       19.057841     19.134474
   21       24.215017     24.311429
   22       27.120911     27.168329
   23       28.084664     28.127412
   24       30.618731     30.776674
 
  0.2105263E+00  0.1578947E+00  0.3742002E-15  0.3499052E-02
    1      -56.074093    -55.355510
    2      -56.031622    -55.311645
    3      -56.008926    -55.288432
    4      -55.960890    -55.239315
    5      -55.918588    -55.195584
    6      -55.895701    -55.172147
    7        0.152390      0.139372
    8        3.889285      4.250005
    9        4.004984      4.359118
   10        5.113573      5.762846
   11        5.331363      5.957665
   12        5.976243      6.666508
   13        6.310277      6.990589
   14        6.552468      7.095530
   15        6.588237      7.257489
   16        6.837232      7.382090
   17        7.440485      8.197490
   18       13.536328     13.673842
   19       15.935476     16.089143
   20       19.639809     19.727511
   21       24.404790     24.492871
   22       26.716262     26.780871
   23       27.992236     28.034018
   24       31.085789     31.031638
 
  0.2631579E+00  0.1578947E+00  0.3742002E-15  0.3499052E-02
    1      -56.074917    -55.356429
    2      -56.023354    -55.303150
    3      -55.996680    -55.275869
    4      -55.978005    -55.256951
    5      -55.926237    -55.203431
    6      -55.899409    -55.175968
    7        0.610769      0.603093
    8        3.943855      4.289223
    9        4.174103      4.536079
   10        5.078268      5.723436
   11        5.320498      5.925038
   12        6.073925      6.741982
   13        6.130133      6.826247
   14        6.418392      6.996809
   15        6.450074      7.071187
   16        6.900906      7.448194
   17        7.396341      8.150570
   18       12.221262     12.396145
   19       16.504139     16.665184
   20       20.356746     20.455715
   21       24.624941     24.702548
   22       25.393593     25.477598
   23       28.624165     28.667113
   24       30.169783     30.129235
 
  0.3157895E+00  0.1578947E+00  0.3742002E-15  0.3499052E-02
    1      -56.073526    -55.355064
    2      -56.013597    -55.293126
    3      -55.995490    -55.274968
    4      -55.983910    -55.262769
    5      -55.934942    -55.212365
    6      -55.905232    -55.181966
    7        1.140588      1.142581
    8        3.945219      4.263219
    9        4.363245      4.736026
   10        5.067236      5.708921
   11        5.312731      5.887059
   12        5.849597      6.507291
   13        6.282497      6.890892
   14        6.290585      6.922103
   15        6.335220      6.992982
   16        6.985625      7.531889
   17        7.318586      8.068333
   18       10.965538     11.185244
   19       17.197475     17.363182
   20       21.192953     21.302373
   21       24.130976     24.232804
   22       24.897138     24.962385
   23       29.177548     29.194649
   24       29.225664     29.220423
 
  0.3684211E+00  0.1578947E+00  0.3742002E-15  0.3499052E-02
    1      -56.069398    -55.350887
    2      -56.012537    -55.292527
    3      -56.002972    -55.282215
    4      -55.971029    -55.249557
    5      -55.945200    -55.222888
    6      -55.913341    -55.190303
    7        1.716572      1.735774
    8        3.856528      4.132370
    9        4.564577      4.950859
   10        5.083639      5.722749
   11        5.294048      5.828096
   12        5.645796      6.295291
   13        6.196033      6.804785
   14        6.232812      6.825655
   15        6.455082      7.164157
   16        7.102829      7.640947
   17        7.212808      7.956839
   18        9.835166     10.111076
   19       17.977335     18.143658
   20       22.134134     22.252507
   21       22.934139     23.052304
   22       25.236607     25.288087
   23       28.035744     28.165119
   24       28.320565     28.303875
 
  0.4210526E+00  0.1578947E+00  0.3742002E-15  0.3499052E-02
    1      -56.062545    -55.343913
    2      -56.028288    -55.308736