unknown system                          
           1
     2.878939    0.000000    0.000000
     0.000000    2.878939    0.000000
     0.000000    0.000000    2.878939
   Ni
   2
unknown system                          
           1
     2.727481   -0.000000    0.000000
    -0.000000    2.727481    0.000000
    -0.000000    0.000000    2.727481
   Ni
   2
Direct configuration=     1
   0.50000000  0.50000000  0.50000000
   0.00000000  0.00000000  0.00000000
unknown system                          
           1
     2.797036   -0.000000    0.000000
    -0.000000    2.797036    0.000000
    -0.000000    0.000000    2.797036
   Ni
   2
Direct configuration=     2
   0.50000000  0.50000000  0.50000000
   0.00000000  0.00000000 -0.00000000
unknown system                          
           1
     2.797036   -0.000000    0.000000
    -0.000000    2.797036    0.000000
    -0.000000    0.000000    2.797036
   Ni
   2
Direct configuration=     3
   0.50000000  0.50000000  0.50000000
   0.00000000  0.00000000 -0.00000000
