   2   2   0   0
  0.1094118E+02  0.2797036E-09  0.2797036E-09  0.2797036E-09  0.5000000E-15
  1.000000000000000E-004
  CAR 
 unknown system                          
     38.72518266    -60.55332136  301      7.75089070      1.00000000
    -60.553  0.0000E+00  0.0000E+00  0.0000E+00  0.0000E+00
    -60.222  0.0000E+00  0.0000E+00  0.0000E+00  0.0000E+00
    -59.891  0.0000E+00  0.0000E+00  0.0000E+00  0.0000E+00
    -59.561  0.0000E+00  0.0000E+00  0.0000E+00  0.0000E+00
    -59.230  0.0000E+00  0.0000E+00  0.0000E+00  0.0000E+00
    -58.899  0.0000E+00  0.0000E+00  0.0000E+00  0.0000E+00
    -58.568  0.0000E+00  0.0000E+00  0.0000E+00  0.0000E+00
    -58.237  0.0000E+00  0.0000E+00  0.0000E+00  0.0000E+00
    -57.906 -0.2434E-39  0.0000E+00 -0.8053E-40  0.0000E+00
    -57.575 -0.4551E-27  0.0000E+00 -0.1506E-27  0.0000E+00
    -57.244 -0.3616E-17 -0.1141E-41 -0.1196E-17 -0.3775E-42
    -56.913 -0.1161E-09 -0.8760E-29 -0.3842E-10 -0.2899E-29
    -56.582 -0.1535E-04 -0.1583E-18 -0.5081E-05 -0.5240E-19
    -56.251 -0.5733E-02 -0.1166E-10 -0.1902E-02 -0.3859E-11
    -55.920  0.1457E+00 -0.3576E-05  0.4633E-01 -0.1183E-05
    -55.589  0.1638E+00 -0.3565E-02  0.1005E+00 -0.1181E-02
    -55.258 -0.6557E-02  0.8964E-01  0.9837E-01  0.2848E-01
    -54.928 -0.1897E-04  0.2182E+00  0.9836E-01  0.1007E+00
    -54.597 -0.1377E-09 -0.6928E-02  0.9836E-01  0.9839E-01
    -54.266 -0.6270E-18 -0.7917E-04  0.9836E-01  0.9836E-01
    -53.935  0.0000E+00 -0.1500E-08  0.9836E-01  0.9836E-01
    -53.604  0.0000E+00 -0.1085E-15  0.9836E-01  0.9836E-01
    -53.273  0.0000E+00  0.0000E+00  0.9836E-01  0.9836E-01
    -52.942  0.0000E+00  0.0000E+00  0.9836E-01  0.9836E-01
    -52.611  0.0000E+00  0.0000E+00  0.9836E-01  0.9836E-01
    -52.280  0.0000E+00  0.0000E+00  0.9836E-01  0.9836E-01
    -51.949  0.0000E+00  0.0000E+00  0.9836E-01  0.9836E-01
    -51.618  0.0000E+00  0.0000E+00  0.9836E-01  0.9836E-01
    -51.287  0.0000E+00  0.0000E+00  0.9836E-01  0.9836E-01
    -50.956  0.0000E+00  0.0000E+00  0.9836E-01  0.9836E-01
    -50.625  0.0000E+00  0.0000E+00  0.9836E-01  0.9836E-01
    -50.295  0.0000E+00  0.0000E+00  0.9836E-01  0.9836E-01
    -49.964  0.0000E+00  0.0000E+00  0.9836E-01  0.9836E-01
    -49.633  0.0000E+00  0.0000E+00  0.9836E-01  0.9836E-01
    -49.302  0.0000E+00  0.0000E+00  0.9836E-01  0.9836E-01
    -48.971  0.0000E+00  0.0000E+00  0.9836E-01  0.9836E-01
    -48.640  0.0000E+00  0.0000E+00  0.9836E-01  0.9836E-01
    -48.309  0.0000E+00  0.0000E+00  0.9836E-01  0.9836E-01
    -47.978  0.0000E+00  0.0000E+00  0.9836E-01  0.9836E-01
    -47.647  0.0000E+00  0.0000E+00  0.9836E-01  0.9836E-01
    -47.316  0.0000E+00  0.0000E+00  0.9836E-01  0.9836E-01
    -46.985  0.0000E+00  0.0000E+00  0.9836E-01  0.9836E-01
    -46.654  0.0000E+00  0.0000E+00  0.9836E-01  0.9836E-01
    -46.323  0.0000E+00  0.0000E+00  0.9836E-01  0.9836E-01
    -45.992  0.0000E+00  0.0000E+00  0.9836E-01  0.9836E-01
    -45.662  0.0000E+00  0.0000E+00  0.9836E-01  0.9836E-01
    -45.331  0.0000E+00  0.0000E+00  0.9836E-01  0.9836E-01
    -45.000  0.0000E+00  0.0000E+00  0.9836E-01  0.9836E-01
    -44.669  0.0000E+00  0.0000E+00  0.9836E-01  0.9836E-01
    -44.338  0.0000E+00  0.0000E+00  0.9836E-01  0.9836E-01
    -44.007  0.0000E+00  0.0000E+00  0.9836E-01  0.9836E-01
    -43.676  0.0000E+00  0.0000E+00  0.9836E-01  0.9836E-01
    -43.345  0.0000E+00  0.0000E+00  0.9836E-01  0.9836E-01
    -43.014  0.0000E+00  0.0000E+00  0.9836E-01  0.9836E-01
    -42.683  0.0000E+00  0.0000E+00  0.9836E-01  0.9836E-01
    -42.352  0.0000E+00  0.0000E+00  0.9836E-01  0.9836E-01
    -42.021  0.0000E+00  0.0000E+00  0.9836E-01  0.9836E-01
    -41.690  0.0000E+00  0.0000E+00  0.9836E-01  0.9836E-01
    -41.359  0.0000E+00  0.0000E+00  0.9836E-01  0.9836E-01
    -41.029  0.0000E+00  0.0000E+00  0.9836E-01  0.9836E-01
    -40.698  0.0000E+00  0.0000E+00  0.9836E-01  0.9836E-01
    -40.367  0.0000E+00  0.0000E+00  0.9836E-01  0.9836E-01
    -40.036  0.0000E+00  0.0000E+00  0.9836E-01  0.9836E-01
    -39.705  0.0000E+00  0.0000E+00  0.9836E-01  0.9836E-01
    -39.374  0.0000E+00  0.0000E+00  0.9836E-01  0.9836E-01
    -39.043  0.0000E+00  0.0000E+00  0.9836E-01  0.9836E-01
    -38.712  0.0000E+00  0.0000E+00  0.9836E-01  0.9836E-01
    -38.381  0.0000E+00  0.0000E+00  0.9836E-01  0.9836E-01
    -38.050  0.0000E+00  0.0000E+00  0.9836E-01  0.9836E-01
    -37.719  0.0000E+00  0.0000E+00  0.9836E-01  0.9836E-01
    -37.388  0.0000E+00  0.0000E+00  0.9836E-01  0.9836E-01
    -37.057  0.0000E+00  0.0000E+00  0.9836E-01  0.9836E-01
    -36.726  0.0000E+00  0.0000E+00  0.9836E-01  0.9836E-01
    -36.396  0.0000E+00  0.0000E+00  0.9836E-01  0.9836E-01
    -36.065  0.0000E+00  0.0000E+00  0.9836E-01  0.9836E-01
    -35.734  0.0000E+00  0.0000E+00  0.9836E-01  0.9836E-01
    -35.403  0.0000E+00  0.0000E+00  0.9836E-01  0.9836E-01
    -35.072  0.0000E+00  0.0000E+00  0.9836E-01  0.9836E-01
    -34.741  0.0000E+00  0.0000E+00  0.9836E-01  0.9836E-01
    -34.410  0.0000E+00  0.0000E+00  0.9836E-01  0.9836E-01
    -34.079  0.0000E+00  0.0000E+00  0.9836E-01  0.9836E-01
    -33.748  0.0000E+00  0.0000E+00  0.9836E-01  0.9836E-01
    -33.417  0.0000E+00  0.0000E+00  0.9836E-01  0.9836E-01
    -33.086  0.0000E+00  0.0000E+00  0.9836E-01  0.9836E-01
    -32.755  0.0000E+00  0.0000E+00  0.9836E-01  0.9836E-01
    -32.424  0.0000E+00  0.0000E+00  0.9836E-01  0.9836E-01
    -32.093  0.0000E+00  0.0000E+00  0.9836E-01  0.9836E-01
    -31.763  0.0000E+00  0.0000E+00  0.9836E-01  0.9836E-01
    -31.432  0.0000E+00  0.0000E+00  0.9836E-01  0.9836E-01
    -31.101  0.0000E+00  0.0000E+00  0.9836E-01  0.9836E-01
    -30.770  0.0000E+00  0.0000E+00  0.9836E-01  0.9836E-01
    -30.439  0.0000E+00  0.0000E+00  0.9836E-01  0.9836E-01
    -30.108  0.0000E+00  0.0000E+00  0.9836E-01  0.9836E-01
    -29.777  0.0000E+00  0.0000E+00  0.9836E-01  0.9836E-01
    -29.446  0.0000E+00  0.0000E+00  0.9836E-01  0.9836E-01
    -29.115  0.0000E+00  0.0000E+00  0.9836E-01  0.9836E-01
    -28.784  0.0000E+00  0.0000E+00  0.9836E-01  0.9836E-01
    -28.453  0.0000E+00  0.0000E+00  0.9836E-01  0.9836E-01
    -28.122  0.0000E+00  0.0000E+00  0.9836E-01  0.9836E-01
    -27.791  0.0000E+00  0.0000E+00  0.9836E-01  0.9836E-01
    -27.460  0.0000E+00  0.0000E+00  0.9836E-01  0.9836E-01
    -27.130  0.0000E+00  0.0000E+00  0.9836E-01  0.9836E-01
    -26.799  0.0000E+00  0.0000E+00  0.9836E-01  0.9836E-01
    -26.468  0.0000E+00  0.0000E+00  0.9836E-01  0.9836E-01
    -26.137  0.0000E+00  0.0000E+00  0.9836E-01  0.9836E-01
    -25.806  0.0000E+00  0.0000E+00  0.9836E-01  0.9836E-01
    -25.475  0.0000E+00  0.0000E+00  0.9836E-01  0.9836E-01
    -25.144  0.0000E+00  0.0000E+00  0.9836E-01  0.9836E-01
    -24.813  0.0000E+00  0.0000E+00  0.9836E-01  0.9836E-01
    -24.482  0.0000E+00  0.0000E+00  0.9836E-01  0.9836E-01
    -24.151  0.0000E+00  0.0000E+00  0.9836E-01  0.9836E-01
    -23.820  0.0000E+00  0.0000E+00  0.9836E-01  0.9836E-01
    -23.489  0.0000E+00  0.0000E+00  0.9836E-01  0.9836E-01
    -23.158  0.0000E+00  0.0000E+00  0.9836E-01  0.9836E-01
    -22.827  0.0000E+00  0.0000E+00  0.9836E-01  0.9836E-01
    -22.497  0.0000E+00  0.0000E+00  0.9836E-01  0.9836E-01
    -22.166  0.0000E+00  0.0000E+00  0.9836E-01  0.9836E-01
    -21.835  0.0000E+00  0.0000E+00  0.9836E-01  0.9836E-01
    -21.504  0.0000E+00  0.0000E+00  0.9836E-01  0.9836E-01
    -21.173  0.0000E+00  0.0000E+00  0.9836E-01  0.9836E-01
    -20.842  0.0000E+00  0.0000E+00  0.9836E-01  0.9836E-01
    -20.511  0.0000E+00  0.0000E+00  0.9836E-01  0.9836E-01
    -20.180  0.0000E+00  0.0000E+00  0.9836E-01  0.9836E-01
    -19.849  0.0000E+00  0.0000E+00  0.9836E-01  0.9836E-01
    -19.518  0.0000E+00  0.0000E+00  0.9836E-01  0.9836E-01
    -19.187  0.0000E+00  0.0000E+00  0.9836E-01  0.9836E-01
    -18.856  0.0000E+00  0.0000E+00  0.9836E-01  0.9836E-01
    -18.525  0.0000E+00  0.0000E+00  0.9836E-01  0.9836E-01
    -18.194  0.0000E+00  0.0000E+00  0.9836E-01  0.9836E-01
    -17.864  0.0000E+00  0.0000E+00  0.9836E-01  0.9836E-01
    -17.533  0.0000E+00  0.0000E+00  0.9836E-01  0.9836E-01
    -17.202  0.0000E+00  0.0000E+00  0.9836E-01  0.9836E-01
    -16.871  0.0000E+00  0.0000E+00  0.9836E-01  0.9836E-01
    -16.540  0.0000E+00  0.0000E+00  0.9836E-01  0.9836E-01
    -16.209  0.0000E+00  0.0000E+00  0.9836E-01  0.9836E-01
    -15.878  0.0000E+00  0.0000E+00  0.9836E-01  0.9836E-01
    -15.547  0.0000E+00  0.0000E+00  0.9836E-01  0.9836E-01
    -15.216  0.0000E+00  0.0000E+00  0.9836E-01  0.9836E-01
    -14.885  0.0000E+00  0.0000E+00  0.9836E-01  0.9836E-01
    -14.554  0.0000E+00  0.0000E+00  0.9836E-01  0.9836E-01
    -14.223  0.0000E+00  0.0000E+00  0.9836E-01  0.9836E-01
    -13.892  0.0000E+00  0.0000E+00  0.9836E-01  0.9836E-01
    -13.561  0.0000E+00  0.0000E+00  0.9836E-01  0.9836E-01
    -13.231  0.0000E+00  0.0000E+00  0.9836E-01  0.9836E-01
    -12.900  0.0000E+00  0.0000E+00  0.9836E-01  0.9836E-01
    -12.569  0.0000E+00  0.0000E+00  0.9836E-01  0.9836E-01
    -12.238  0.0000E+00  0.0000E+00  0.9836E-01  0.9836E-01
    -11.907  0.0000E+00  0.0000E+00  0.9836E-01  0.9836E-01
    -11.576  0.0000E+00  0.0000E+00  0.9836E-01  0.9836E-01
    -11.245  0.0000E+00  0.0000E+00  0.9836E-01  0.9836E-01
    -10.914  0.0000E+00  0.0000E+00  0.9836E-01  0.9836E-01
    -10.583  0.0000E+00  0.0000E+00  0.9836E-01  0.9836E-01
    -10.252  0.0000E+00  0.0000E+00  0.9836E-01  0.9836E-01
     -9.921  0.0000E+00  0.0000E+00  0.9836E-01  0.9836E-01
     -9.590  0.0000E+00  0.0000E+00  0.9836E-01  0.9836E-01
     -9.259  0.0000E+00  0.0000E+00  0.9836E-01  0.9836E-01
     -8.928  0.0000E+00  0.0000E+00  0.9836E-01  0.9836E-01
     -8.598  0.0000E+00  0.0000E+00  0.9836E-01  0.9836E-01
     -8.267  0.0000E+00  0.0000E+00  0.9836E-01  0.9836E-01
     -7.936  0.0000E+00  0.0000E+00  0.9836E-01  0.9836E-01
     -7.605  0.0000E+00  0.0000E+00  0.9836E-01  0.9836E-01
     -7.274  0.0000E+00  0.0000E+00  0.9836E-01  0.9836E-01
     -6.943  0.0000E+00  0.0000E+00  0.9836E-01  0.9836E-01
     -6.612  0.0000E+00  0.0000E+00  0.9836E-01  0.9836E-01
     -6.281  0.0000E+00  0.0000E+00  0.9836E-01  0.9836E-01
     -5.950  0.0000E+00  0.0000E+00  0.9836E-01  0.9836E-01
     -5.619  0.0000E+00  0.0000E+00  0.9836E-01  0.9836E-01
     -5.288  0.0000E+00  0.0000E+00  0.9836E-01  0.9836E-01
     -4.957  0.0000E+00  0.0000E+00  0.9836E-01  0.9836E-01
     -4.626  0.0000E+00  0.0000E+00  0.9836E-01  0.9836E-01
     -4.296  0.0000E+00  0.0000E+00  0.9836E-01  0.9836E-01
     -3.965  0.0000E+00  0.0000E+00  0.9836E-01  0.9836E-01
     -3.634  0.0000E+00  0.0000E+00  0.9836E-01  0.9836E-01
     -3.303  0.0000E+00  0.0000E+00  0.9836E-01  0.9836E-01
     -2.972 -0.3793E-39 -0.2015E-38  0.9836E-01  0.9836E-01
     -2.641 -0.1477E-27 -0.5744E-27  0.9836E-01  0.9836E-01
     -2.310 -0.2391E-18 -0.6830E-18  0.9836E-01  0.9836E-01
     -1.979 -0.1801E-11 -0.3779E-11  0.9836E-01  0.9836E-01
     -1.648 -0.6533E-07 -0.1009E-06  0.9836E-01  0.9836E-01
     -1.317 -0.6962E-05 -0.6780E-05  0.9836E-01  0.9836E-01
     -0.986  0.2004E-03  0.2283E-03  0.9842E-01  0.9843E-01
     -0.655  0.6608E-03  0.6790E-03  0.9864E-01  0.9866E-01
     -0.324  0.9365E-03  0.9412E-03  0.9895E-01  0.9897E-01
      0.007  0.1236E-02  0.1237E-02  0.9936E-01  0.9938E-01
      0.337  0.1404E-02  0.1416E-02  0.9983E-01  0.9985E-01
      0.668  0.1594E-02  0.1569E-02  0.1004E+00  0.1004E+00
      0.999  0.1925E-02  0.1899E-02  0.1010E+00  0.1010E+00
      1.330  0.2026E-02  0.1975E-02  0.1017E+00  0.1016E+00
      1.661  0.2625E-02  0.2547E-02  0.1025E+00  0.1025E+00
      1.992  0.2696E-02  0.2532E-02  0.1034E+00  0.1033E+00
      2.323  0.3520E-02  0.3185E-02  0.1046E+00  0.1044E+00
      2.654  0.3993E-02  0.3451E-02  0.1059E+00  0.1055E+00
      2.985  0.6073E-02  0.4547E-02  0.1079E+00  0.1070E+00
      3.316  0.1161E-01  0.5806E-02  0.1118E+00  0.1090E+00
      3.647  0.1543E-01  0.1085E-01  0.1169E+00  0.1125E+00
      3.978  0.2507E-01  0.1385E-01  0.1252E+00  0.1171E+00
      4.309  0.2215E-01  0.2232E-01  0.1325E+00  0.1245E+00
      4.640  0.3354E-01  0.2097E-01  0.1436E+00  0.1315E+00
      4.970  0.4896E-01  0.1410E-01  0.1598E+00  0.1361E+00
      5.301  0.4913E-01  0.4510E-01  0.1761E+00  0.1510E+00
      5.632  0.3748E-01  0.4511E-01  0.1885E+00  0.1660E+00
      5.963  0.1485E-01  0.4826E-01  0.1934E+00  0.1819E+00
      6.294  0.1963E-01  0.2636E-01  0.1999E+00  0.1907E+00
      6.625  0.4410E-01  0.1255E-01  0.2145E+00  0.1948E+00
      6.956  0.7202E-01  0.2094E-01  0.2383E+00  0.2017E+00
      7.287  0.6758E-01  0.5032E-01  0.2607E+00  0.2184E+00
      7.618  0.2823E-01  0.7903E-01  0.2700E+00  0.2446E+00
      7.949  0.8082E-02  0.4782E-01  0.2727E+00  0.2604E+00
      8.280  0.5149E-02  0.2847E-01  0.2744E+00  0.2698E+00
      8.611  0.5319E-02  0.1101E-01  0.2761E+00  0.2734E+00
      8.942  0.5250E-02  0.6117E-02  0.2779E+00  0.2755E+00
      9.273  0.4728E-02  0.5612E-02  0.2794E+00  0.2773E+00
      9.603  0.4471E-02  0.5404E-02  0.2809E+00  0.2791E+00
      9.934  0.4814E-02  0.5178E-02  0.2825E+00  0.2808E+00
     10.265  0.3705E-02  0.4893E-02  0.2837E+00  0.2824E+00
     10.596  0.4490E-02  0.4095E-02  0.2852E+00  0.2838E+00
     10.927  0.3344E-02  0.4628E-02  0.2863E+00  0.2853E+00
     11.258  0.3817E-02  0.3327E-02  0.2876E+00  0.2864E+00
     11.589  0.3255E-02  0.4317E-02  0.2887E+00  0.2879E+00
     11.920  0.2942E-02  0.2955E-02  0.2897E+00  0.2888E+00
     12.251  0.2409E-02  0.3184E-02  0.2905E+00  0.2899E+00
     12.582  0.3214E-02  0.2536E-02  0.2915E+00  0.2907E+00
     12.913  0.1782E-02  0.3262E-02  0.2921E+00  0.2918E+00
     13.244  0.1770E-02  0.1208E-02  0.2927E+00  0.2922E+00
     13.575  0.1802E-02  0.2277E-02  0.2933E+00  0.2930E+00
     13.906  0.1631E-02  0.1868E-02  0.2938E+00  0.2936E+00
     14.236  0.9987E-03  0.1091E-02  0.2942E+00  0.2939E+00
     14.567  0.4427E-02  0.8981E-03  0.2956E+00  0.2942E+00
     14.898  0.6869E-02  0.5409E-02  0.2979E+00  0.2960E+00
     15.229  0.7340E-02  0.7477E-02  0.3003E+00  0.2985E+00
     15.560  0.5169E-02  0.7113E-02  0.3020E+00  0.3009E+00
     15.891  0.4806E-02  0.5075E-02  0.3036E+00  0.3025E+00
     16.222  0.6315E-02  0.5984E-02  0.3057E+00  0.3045E+00
     16.553  0.3374E-02  0.5020E-02  0.3068E+00  0.3062E+00
     16.884  0.6637E-02  0.4371E-02  0.3090E+00  0.3076E+00
     17.215  0.5111E-02  0.6705E-02  0.3107E+00  0.3098E+00
     17.546  0.6025E-02  0.5920E-02  0.3127E+00  0.3118E+00
     17.877  0.5641E-02  0.5390E-02  0.3146E+00  0.3136E+00
     18.208  0.6722E-02  0.6869E-02  0.3168E+00  0.3159E+00
     18.539  0.5084E-02  0.5549E-02  0.3185E+00  0.3177E+00
     18.869  0.6178E-02  0.6043E-02  0.3205E+00  0.3197E+00
     19.200  0.5875E-02  0.5548E-02  0.3225E+00  0.3215E+00
     19.531  0.5422E-02  0.5890E-02  0.3243E+00  0.3235E+00
     19.862  0.5867E-02  0.6008E-02  0.3262E+00  0.3255E+00
     20.193  0.5340E-02  0.5491E-02  0.3280E+00  0.3273E+00
     20.524  0.5348E-02  0.4968E-02  0.3297E+00  0.3289E+00
     20.855  0.6075E-02  0.6420E-02  0.3318E+00  0.3311E+00
     21.186  0.4955E-02  0.5588E-02  0.3334E+00  0.3329E+00
     21.517  0.5052E-02  0.4220E-02  0.3351E+00  0.3343E+00
     21.848  0.5461E-02  0.5911E-02  0.3369E+00  0.3363E+00
     22.179  0.6050E-02  0.6145E-02  0.3389E+00  0.3383E+00
     22.510  0.3938E-02  0.4332E-02  0.3402E+00  0.3397E+00
     22.841  0.5184E-02  0.4647E-02  0.3419E+00  0.3413E+00
     23.172  0.6043E-02  0.6041E-02  0.3439E+00  0.3433E+00
     23.502  0.4599E-02  0.5109E-02  0.3454E+00  0.3450E+00
     23.833  0.4711E-02  0.4544E-02  0.3470E+00  0.3465E+00
     24.164  0.5865E-02  0.5579E-02  0.3489E+00  0.3483E+00
     24.495  0.6977E-02  0.6963E-02  0.3512E+00  0.3506E+00
     24.826  0.5448E-02  0.6014E-02  0.3530E+00  0.3526E+00
     25.157  0.6330E-02  0.5942E-02  0.3551E+00  0.3546E+00
     25.488  0.6944E-02  0.6886E-02  0.3574E+00  0.3568E+00
     25.819  0.7834E-02  0.8123E-02  0.3600E+00  0.3595E+00
     26.150  0.6804E-02  0.7204E-02  0.3623E+00  0.3619E+00
     26.481  0.7137E-02  0.6809E-02  0.3646E+00  0.3642E+00
     26.812  0.8103E-02  0.8276E-02  0.3673E+00  0.3669E+00
     27.143  0.8426E-02  0.8555E-02  0.3701E+00  0.3697E+00
     27.474  0.7528E-02  0.7716E-02  0.3726E+00  0.3723E+00
     27.805  0.8444E-02  0.8018E-02  0.3754E+00  0.3749E+00
     28.135  0.7944E-02  0.7886E-02  0.3780E+00  0.3776E+00
     28.466  0.8982E-02  0.9565E-02  0.3810E+00  0.3807E+00
     28.797  0.4948E-02  0.5036E-02  0.3826E+00  0.3824E+00
     29.128  0.7510E-02  0.6903E-02  0.3851E+00  0.3847E+00
     29.459  0.6108E-02  0.6807E-02  0.3871E+00  0.3869E+00
     29.790  0.4950E-02  0.5129E-02  0.3888E+00  0.3886E+00
     30.121  0.4480E-02  0.3845E-02  0.3903E+00  0.3899E+00
     30.452  0.4078E-02  0.4972E-02  0.3916E+00  0.3915E+00
     30.783  0.2438E-02  0.2453E-02  0.3924E+00  0.3924E+00
     31.114  0.1677E-02  0.1804E-02  0.3930E+00  0.3929E+00
     31.445  0.5388E-03  0.4666E-03  0.3931E+00  0.3931E+00
     31.776  0.3582E-03  0.4972E-03  0.3933E+00  0.3933E+00
     32.107  0.2447E-03  0.2550E-03  0.3933E+00  0.3934E+00
     32.438  0.7160E-04  0.4174E-04  0.3934E+00  0.3934E+00
     32.768  0.3754E-04  0.3509E-04  0.3934E+00  0.3934E+00
     33.099  0.4645E-04  0.8421E-04  0.3934E+00  0.3934E+00
     33.430  0.1044E-03  0.6455E-04  0.3934E+00  0.3934E+00
     33.761  0.2867E-04  0.4026E-04  0.3934E+00  0.3934E+00
     34.092  0.1294E-04  0.4190E-05  0.3934E+00  0.3934E+00
     34.423  0.6436E-05  0.3960E-05  0.3934E+00  0.3934E+00
     34.754 -0.2121E-06 -0.1621E-06  0.3934E+00  0.3934E+00
     35.085 -0.3148E-08 -0.1396E-09  0.3934E+00  0.3934E+00
     35.416 -0.4589E-13 -0.2884E-15  0.3934E+00  0.3934E+00
     35.747 -0.1604E-20  0.0000E+00  0.3934E+00  0.3934E+00
     36.078  0.0000E+00  0.0000E+00  0.3934E+00  0.3934E+00
     36.409  0.0000E+00  0.0000E+00  0.3934E+00  0.3934E+00
     36.740  0.0000E+00  0.0000E+00  0.3934E+00  0.3934E+00
     37.071  0.0000E+00  0.0000E+00  0.3934E+00  0.3934E+00
     37.401  0.0000E+00  0.0000E+00  0.3934E+00  0.3934E+00
     37.732  0.0000E+00  0.0000E+00  0.3934E+00  0.3934E+00
     38.063  0.0000E+00  0.0000E+00  0.3934E+00  0.3934E+00
     38.394  0.0000E+00  0.0000E+00  0.3934E+00  0.3934E+00
     38.725  0.0000E+00  0.0000E+00  0.3934E+00  0.3934E+00
