    2    2   61    2
  0.1094118E+02  0.2797036E-09  0.2797036E-09  0.2797036E-09  0.5000000E-15
  1.000000000000000E-004
  CAR 
 unknown system                          
     32    220     24
 
  0.3742002E-15  0.3742002E-15  0.3742002E-15  0.1457938E-03
    1      -55.985237    -55.271361
    2      -55.985237    -55.271361
    3      -55.985237    -55.271361
    4      -55.815951    -55.097641
    5      -55.815951    -55.097641
    6      -55.815951    -55.097641
    7       -1.184169     -1.203053
    8        3.545487      3.899922
    9        3.545487      3.899922
   10        5.453499      6.117613
   11        5.453499      6.117613
   12        5.453499      6.117613
   13        6.866605      7.402323
   14        6.866605      7.402323
   15        7.484355      8.234632
   16        7.484355      8.234632
   17        7.484355      8.234632
   18       17.507806     17.533356
   19       17.507806     17.533356
   20       17.507806     17.533356
   21       23.344796     23.473492
   22       23.344796     23.473492
   23       27.345163     27.532345
   24       34.212523     34.100474
 
  0.5263158E-01  0.3742002E-15  0.3742002E-15  0.8747631E-03
    1      -55.982975    -55.269072
    2      -55.982429    -55.268484
    3      -55.982429    -55.268484
    4      -55.817947    -55.099705
    5      -55.817018    -55.098736
    6      -55.817018    -55.098736
    7       -1.126570     -1.145390
    8        3.564997      3.918459
    9        3.568463      3.923939
   10        5.453045      6.116565
   11        5.453045      6.116565
   12        5.467040      6.131689
   13        6.844978      7.379373
   14        6.875124      7.411390
   15        7.444647      8.190720
   16        7.444647      8.190720
   17        7.470906      8.220577
   18       17.031713     17.071874
   19       17.610802     17.640766
   20       17.610802     17.640766
   21       23.366039     23.493621
   22       23.712895     23.829919
   23       27.556609     27.741113
   24       33.705903     33.604790
 
  0.1052632E+00  0.3742002E-15  0.3742002E-15  0.8747631E-03
    1      -55.982096    -55.268213
    2      -55.978924    -55.264884
    3      -55.978924    -55.264884
    4      -55.824999    -55.106977
    5      -55.820349    -55.102140
    6      -55.820349    -55.102140
    7       -0.954729     -0.973322
    8        3.619495      3.969639
    9        3.635916      3.994497
   10        5.452295      6.114111
   11        5.452295      6.114111
   12        5.507306      6.173550
   13        6.780477      7.310935
   14        6.899650      7.437430
   15        7.329269      8.063902
   16        7.329269      8.063902
   17        7.428935      8.176714
   18       15.914836     15.982418
   19       17.912910     17.954790
   20       17.912910     17.954790
   21       23.430289     23.554505
   22       24.422906     24.525088
   23       28.276866     28.449877
   24       32.631899     32.544884
 
  0.1578947E+00  0.3742002E-15  0.3742002E-15  0.8747631E-03
    1      -55.980417    -55.266555
    2      -55.973159    -55.258962
    3      -55.973159    -55.258962
    4      -55.834456    -55.116753
    5      -55.825601    -55.107526
    6      -55.825601    -55.107526
    7       -0.671797     -0.689884
    8        3.700078      4.043418
    9        3.746490      4.110215
   10        5.454088      6.113298
   11        5.454088      6.113298
   12        5.573300      6.242167
   13        6.674409      7.198402
   14        6.939637      7.479612
   15        7.155086      7.874001
   16        7.155086      7.874001
   17        7.360355      8.105051
   18       14.561709     14.658042
   19       18.397284     18.455659
   20       18.397284     18.455659
   21       23.539440     23.658076
   22       24.993895     25.090924
   23       29.593911     29.746526
   24       31.440259     31.368112
 
  0.2105263E+00  0.3742002E-15  0.3742002E-15  0.8747631E-03
    1      -55.977026    -55.263178
    2      -55.965298    -55.250892
    3      -55.965298    -55.250892
    4      -55.846847    -55.129557
    5      -55.832789    -55.114898
    6      -55.832789    -55.114898
    7       -0.283461     -0.300509
    8        3.790834      4.121746
    9        3.897369      4.268229
   10        5.462016      6.118051
   11        5.462016      6.118051
   12        5.663357      6.335823
   13        6.528958      7.044118
   14        6.942804      7.535278
   15        6.942804      7.644812
   16        6.993069      7.644812
   17        7.267085      8.007608
   18       13.169121     13.296943
   19       19.041631     19.117950
   20       19.041631     19.117950
   21       23.696569     23.807463
   22       25.373041     25.465945
   23       30.283614     30.226468
   24       31.383209     31.516243
 
  0.2631579E+00  0.3742002E-15  0.3742002E-15  0.8747631E-03
    1      -55.972932    -55.259064
    2      -55.955633    -55.240965
    3      -55.955633    -55.240965
    4      -55.861571    -55.144745
    5      -55.842336    -55.124679
    6      -55.842336    -55.124679
    7        0.201344      0.186395
    8        3.866612      4.176101
    9        4.084646      4.464544
   10        5.480659      6.133364
   11        5.480659      6.133364
   12        5.775095      6.452067
   13        6.346958      6.851148
   14        6.712747      7.398930
   15        6.712747      7.398930
   16        7.059286      7.602732
   17        7.151764      7.887161
   18       11.829266     11.995493
   19       19.823211     19.916598
   20       19.823211     19.916598
   21       23.905937     24.007009
   22       25.674133     25.759225
   23       29.211226     29.169745
   24       30.466872     30.564978
 
  0.3157895E+00  0.3742002E-15  0.3742002E-15  0.8747631E-03
    1      -55.967139    -55.253205
    2      -55.944420    -55.229450
    3      -55.944420    -55.229450
    4      -55.876842    -55.160539
    5      -55.852814    -55.135431
    6      -55.852814    -55.135431
    7        0.768753      0.758011
    8        3.893131      4.167817
    9        4.303346      4.694056
   10        5.515298      6.164954
   11        5.515298      6.164954
   12        5.905782      6.588064
   13        6.133547      6.624989
   14        6.482232      7.154939
   15        6.482232      7.154939
   16        7.017680      7.683738
   17        7.141705      7.747157
   18       10.600434     10.816704
   19       20.721649     20.829872
   20       20.721649     20.829872
   21       24.172901     24.262200
   22       25.983372     26.057706
   23       28.240054     28.215050
   24       29.121629     29.239910
 
  0.3684211E+00  0.3742002E-15  0.3742002E-15  0.8747631E-03
    1      -55.959171    -55.245097
    2      -55.931134    -55.215826
    3      -55.931134    -55.215826
    4      -55.893316    -55.177524
    5      -55.864601    -55.147523
    6      -55.864601    -55.147523
    7        1.397291      1.394922
    8        3.824902      4.048002
    9        4.547771      4.950893
   10        5.570721      6.218080
   11        5.570721      6.218080
   12        5.893761      6.371077
   13        6.051935      6.740214
   14        6.264484      6.926575
   15        6.264484      6.926575
   16        6.869001      7.591946
   17        7.249593      7.784798
   18        9.534092      9.815315
   19       21.719952     21.840147
   20       21.719952     21.840147
   21       24.503808     24.579568
   22       26.352823     26.415129
   23       27.374714     27.366891
   24       27.776887     27.906670
 
  0.4210526E+00  0.3742002E-15  0.3742002E-15  0.8747631E-03
    1      -55.949701    -55.235446
    2      -55.917995    -55.202330
    3      -55.917995    -55.202330
    4      -55.908961    -55.193626
    5      -55.877334    -55.160599
    6      -55.877334    -55.160599
    7        2.053245      2.067196
    8        3.612157      3.770117
    9        4.810595      5.227442
   10        5.634006      6.096290
   11        5.651377      6.297642
   12        5.651377      6.297642
   13        6.068222      6.722602
   14        6.068222      6.722602
   15        6.209697      6.904520
   16        6.709058      7.425072
   17        7.406698      7.925221
   18        8.678180      9.035656
   19       22.803886     22.932916
   20       22.803886     22.932916
   21       24.905738     24.966427
   22       26.458942     26.594454
   23       26.459209     26.623641
   24       26.614127     26.867024
 
  0.4736842E+00  0.3742002E-15  0.3742002E-15  0.8747631E-03
    1      -55.937845    -55.223308
    2      -55.924204    -55.209300
    3      -55.904292    -55.188261
    4      -55.904292    -55.188261
    5      -55.890787    -55.174406
    6      -55.890787    -55.174406
    7        2.685284      2.729360
    8        3.225601      3.318832
    9        5.084574      5.516139
   10        5.361649      5.808515
   11        5.760239      6.407041
   12        5.760239      6.407041
   13        5.899383      6.548776
   14        5.899383      6.548776
   15        6.374787      7.076537
   16        6.542801      7.251681
   17        7.655654      8.141194
   18        8.059226      8.489940
   19       23.961816     24.096457
   20       23.961816     24.096457
   21       25.183491     25.320397
   22       25.183491     25.320397
   23       25.386304     25.430706
   24       25.953245     25.980514
 
  0.5263158E-01  0.5263158E-01  0.3742002E-15  0.1749526E-02
    1      -55.985680    -55.271853
    2      -55.981363    -55.267405
    3      -55.978797    -55.264776
    4      -55.822118    -55.103996
    5      -55.818070    -55.099815
    6      -55.815905    -55.097597
    7       -1.069136     -1.087876
    8        3.586441      3.939980
    9        3.588786      3.944281
   10        5.427150      6.089386
   11        5.451973      6.114688
   12        5.505917      6.171802
   13        6.839496      7.373704
   14        6.868658      7.404554
   15        7.371617      8.112237
   16        7.403906      8.145623
   17        7.490703      8.241249
   18       17.044661     17.089059
   19       17.216153     17.260649
   20       17.711999     17.746036
   21       23.555977     23.677319
   22       23.936105     24.046033
   23       27.752063     27.934670
   24       33.195576     33.119001
 
  0.1052632E+00  0.5263158E-01  0.3742002E-15  0.3499052E-02
    1      -55.986255    -55.272467
    2      -55.977729    -55.263670
    3      -55.973600    -55.259452
    4      -55.830698    -55.112814
    5      -55.821354    -55.103171
    6      -55.817582    -55.099325
    7       -0.897928     -0.916390
    8        3.641983      3.992814
    9        3.654504      4.012621
   10        5.405600      6.065707
   11        5.449530      6.109895
   12        5.566671      6.234611
   13        6.783502      7.314645
   14        6.888139      7.425331
   15        7.233928      7.963000
   16        7.288888      8.018873
   17        7.475824      8.225386
   18       15.990253     16.061386
   19       17.435945     17.492628
   20       18.009595     18.054762
   21       23.682512     23.799057
   22       24.647724     24.742751
   23       28.427244     28.600399
   24       32.091454     32.040749
 
  0.1578947E+00  0.5263158E-01  0.3742002E-15  0.3499052E-02
    1      -55.985423    -55.271675
    2      -55.971765    -55.257540
    3      -55.966595    -55.252267
    4      -55.841444    -55.123904
    5      -55.826540    -55.108487
    6      -55.821739    -55.103588
    7       -0.616077     -0.633936
    8        3.722995      4.067335
    9        3.763370      4.126541
   10        5.393550      6.050981
   11        5.448446      6.105040
   12        5.645953      6.316639
   13        6.682737      7.208411
   14        6.928353      7.467886
   15        7.050111      7.764296
   16        7.115865      7.829764
   17        7.423684      8.170336
   18       14.635260     14.734889
   19       17.893108     17.965962
   20       18.487552     18.548237
   21       23.811992     23.922848
   22       25.273420     25.362885
   23       29.695983     29.849907
   24       30.847507     30.818662
 
  0.2105263E+00  0.5263158E-01  0.3742002E-15  0.3499052E-02
    1      -55.983438    -55.269709
    2      -55.964014    -55.249581
    3      -55.957852    -55.243310
    4      -55.854764    -55.137639
    5      -55.833959    -55.116088
    6      -55.828115    -55.110140
    7       -0.229436     -0.246082
    8        3.813808      4.146052
    9        3.911630      4.281942
   10        5.392248      6.046588
   11        5.452307      6.103726
   12        5.744271      6.418543
   13        6.544167      7.062752
   14        6.835337      7.524613
   15        6.906450      7.533630
   16        6.982675      7.603135
   17        7.340344      8.082747
   18       13.239593     13.370443
   19       18.499936     18.589991
   20       19.124607     19.202310
   21       23.987964     24.091274
   22       25.699037     25.785234
   23       29.610700     29.604610
   24       31.456427     31.589961
 
  0.2631579E+00  0.5263158E-01  0.3742002E-15  0.3499052E-02
    1      -55.979729    -55.265994
    2      -55.954455    -55.239765
    3      -55.947715    -55.232909
    4      -55.869784    -55.153136
    5      -55.843070    -55.125427
    6      -55.836402    -55.118644
    7        0.252912      0.238660
    8        3.889402      4.200664
    9        4.095225      4.474661
   10        5.404572      6.055713
   11        5.464663      6.108913
   12        5.861269      6.539981
   13        6.372969      6.884107
   14        6.606408      7.289752
   15        6.682452      7.363158
   16        7.049896      7.593194
   17        7.231438      7.968597
   18       11.895734     12.064552
   19       19.230125     19.335836
   20       19.898876     19.992900
   21       24.220515     24.314462
   22       26.040553     26.120244
   23       28.419378     28.438400
   24       30.527365     30.555442
 
  0.3157895E+00  0.5263158E-01  0.3742002E-15  0.3499052E-02
    1      -55.974435    -55.260637
    2      -55.943298    -55.228305
    3      -55.936086    -55.220971
    4      -55.885415    -55.169284
    5      -55.853405    -55.136031
    6      -55.846231    -55.128744
    7        0.816825      0.807272
    8        3.914588      4.191727
    9        4.308907      4.699359
   10        5.434552      6.082777
   11        5.486874      6.118810
   12        5.995035      6.678992
   13        6.177284      6.684496
   14        6.378686      7.049209
   15        6.462935      7.130198
   16        7.101699      7.675124
   17        7.133220      7.832845
   18       10.660790     10.878791
   19       20.060405     20.178561
   20       20.790537     20.898862
   21       24.517871     24.600888
   22       26.391891     26.462487
   23       27.275411     27.321766
   24       29.174189     29.405776
 
  0.3684211E+00  0.5263158E-01  0.3742002E-15  0.3499052E-02
    1      -55.967123    -55.253202
    2      -55.931060    -55.215739
    3      -55.923591    -55.208145
    4      -55.901554    -55.185919
    5      -55.864916    -55.147846
    6      -55.857624    -55.140439
    7        1.440461      1.440071
    8        3.844211      4.070864
    9        4.546184      4.949479
   10        5.486351      6.108320
   11        5.509462      6.132392
   12        5.976408      6.499650
   13        6.142882      6.824415
   14        6.164063      6.832782
   15        6.262589      6.919257
   16        6.955667      7.680222
   17        7.242716      7.777662
   18        9.584464      9.865976
   19       20.970310     21.096591
   20       21.782740     21.902670
   21       24.889559     24.960542
   22       26.166580     26.240478
   23       26.808947     26.869760
   24       27.826192     27.956029
 
  0.4210526E+00  0.5263158E-01  0.3742002E-15  0.3499052E-02
    1      -55.957452    -55.243337
    2      -55.917941    -55.202265
    3      -55.917360    -55.202188
    4      -55.910477    -55.194679
    5      -55.877588    -55.160854
    6      -55.870061    -55.153200
    7        2.089893      2.106988
    8        3.630798      3.793593
    9        4.799047      5.217113
   10        5.474471      5.991538
   11        5.563684      6.208695
   12        5.837614      6.425738
   13        5.971209      6.624136
   14        6.090367      6.738694
   15        6.301211      6.997616
   16        6.798049      7.515635
   17        7.403401      7.921260
   18        8.714069      9.070305
   19       21.941993     22.071206
   20       22.861627     22.990195
   21       25.079603     25.177692
   22       25.347187     25.405806
   23       26.508221     26.643391
   24       27.327082     27.379125
 
  0.4736842E+00  0.5263158E-01  0.3742002E-15  0.3499052E-02
    1      -55.946145    -55.231758
    2      -55.932351    -55.217602
    3      -55.904476    -55.188438
    4      -55.897039    -55.180889
    5      -55.890962    -55.174573
    6      -55.883474    -55.166963
    7        2.714182      2.762761
    8        3.247527      3.346078
    9        5.056775      5.492403
   10        5.300256      5.761040
   11        5.669597      6.315165
   12        5.805526      6.453618
   13        5.849827      6.478590
   14        5.949767      6.590512
   15        6.466127      7.169442
   16        6.633241      7.343680
   17        7.660541      8.144737
   18        8.078136      8.507014
   19       22.959576     23.085616
   20       24.009101     24.124926
   21       24.015521     24.149627
   22       25.234318     25.370729
   23       25.904618     25.951743
   24       26.577239     26.615284
 
  0.1052632E+00  0.1052632E+00  0.3742002E-15  0.1749526E-02
    1      -55.989461    -55.275800
    2      -55.974091    -55.259931
    3      -55.965762    -55.251411
    4      -55.840942    -55.123356
    5      -55.824377    -55.106270
    6      -55.816101    -55.097817
    7       -0.728596     -0.746617
    8        3.706943      4.059649
    9        3.708719      4.065269
   10        5.351326      6.008211
   11        5.442343      6.098443
   12        5.659387      6.330570
   13        6.770850      7.302887
   14        6.874780      7.411236
   15        7.061788      7.778655
   16        7.175166      7.892660
   17        7.508315      8.259628
   18       15.989820     16.067046
   19       16.561218     16.649463
   20       18.294648     18.348899
   21       23.969038     24.078440
   22       25.376685     25.453955
   23       28.961762     29.132130
   24       30.928504     30.916706
 
  0.1578947E+00  0.1052632E+00  0.3742002E-15  0.3499052E-02
    1      -55.991804    -55.278250
    2      -55.968787    -55.254485
    3      -55.956674    -55.242095
    4      -55.853864    -55.136677
    5      -55.829384    -55.111398
    6      -55.817871    -55.099627
    7       -0.450172     -0.467265
    8        3.786025      4.136059
    9        3.815063      4.173528
   10        5.308983      5.962329
   11        5.433752      6.082878
   12        5.767206      6.442153
   13        6.700089      7.230257
   14        6.853841      7.439257
   15        6.900944      7.556305
   16        7.006268      7.706820
   17        7.498300      8.248824
   18       14.818943     14.924844
   19       16.784570     16.886932
   20       18.754515     18.821672
   21       24.152761     24.255972
   22       26.165690     26.233604
   23       29.613621     29.628743
   24       30.054145     30.211321
 
  0.2105263E+00  0.1052632E+00  0.3742002E-15  0.3499052E-02
    1      -55.992229    -55.278751
    2      -55.961257    -55.246747
    3      -55.946180    -55.231351
    4      -55.868742    -55.152010
    5      -55.836445    -55.118636
    6      -55.821762    -55.103632
    7       -0.068782     -0.084091
    8        3.874068      4.213374
    9        3.958537      4.323833
   10        5.281732      5.931446
   11        5.427700      6.066782
   12        5.889012      6.568272
   13        6.584450      7.111675
   14        6.625750      7.313588
   15        6.806686      7.489363
   16        6.954238      7.495380
   17        7.449432      8.196994
   18       13.430329     13.567289
   19       17.323490     17.440436
   20       19.370882     19.452536
   21       24.342919     24.438397
   22       26.738967     26.805345
   23       28.295662     28.333792
   24       31.549695     31.512771
 
  0.2631579E+00  0.1052632E+00  0.3742002E-15  0.3499052E-02
    1      -55.990487    -55.277037
    2      -55.951879    -55.237116
    3      -55.934535    -55.219407
    4      -55.884992    -55.168762
    5      -55.844883    -55.127290
    6      -55.827978    -55.110024
    7        0.405782      0.393845
    8        3.945553      4.265418
    9        4.133928      4.508440
   10        5.272489      5.918721
   11        5.426545      6.050959
   12        6.024077      6.708257
   13        6.391831      6.966834
   14        6.440663      7.066184
   15        6.601707      7.268129
   16        7.022954      7.565841
   17        7.367271      8.110259
   18       12.079379     12.253178
   19       17.986120     18.115688
   20       20.124162     20.220062
   21       24.575038     24.660925
   22       27.017113     27.076825
   23       27.192444     27.256234
   24       30.488932     30.468701
 
  0.3157895E+00  0.1052632E+00  0.3742002E-15  0.3499052E-02
    1      -55.986774    -55.273302
    2      -55.941256    -55.226206
    3      -55.922222    -55.206776
    4      -55.901448    -55.185738
    5      -55.855333    -55.138002
    6      -55.836164    -55.118437
    7        0.958531      0.952929
    8        3.964347      4.252325
    9        4.335671      4.721591
   10        5.284567      5.927774
   11        5.427638      6.028660
   12        6.164416      6.814671
   13        6.170862      6.827252
   14        6.282903      6.860590
   15        6.414277      7.067348
   16        7.108217      7.649796
   17        7.257556      7.994826
   18       10.828952     11.049628
   19       18.742182     18.880533
   20       20.996006     21.104652
   21       24.864690     24.939251
   22       25.790299     25.870361
   23       27.641086     27.700064
   24       29.441374     29.433228
 
  0.3684211E+00  0.1052632E+00  0.3742002E-15  0.3499052E-02
    1      -55.980954    -55.267394
    2      -55.929552    -55.214183
    3      -55.917804    -55.202591
    4      -55.909486    -55.193705
    5      -55.866347    -55.149306
    6      -55.846023    -55.128568
    7        1.566405      1.572612
    8        3.887062      4.127878
    9        4.556355      4.955877
   10        5.321602      5.962583
   11        5.415224      5.977268
   12        5.953619      6.607300
   13        6.136379      6.687904
   14        6.261577      6.904158
   15        6.327275      7.023133
   16        7.126157      7.756051
   17        7.221852      7.856940
   18        9.726268     10.006809
   19       19.574215     19.716751
   20       21.970509     22.089717
   21       24.618016     24.716628
   22       25.224265     25.286139
   23       27.972090     28.101663
   24       28.148787     28.202219
 
  0.4210526E+00  0.1052632E+00  0.3742002E-15  0.3499052E-02
    1      -55.972516    -55.258784
    2      -55.933981    -55.219236
    3      -55.917023    -55.201318
    4      -55.896281    -55.180161
    5      -55.878506    -55.161788
    6      -55.857327    -55.140179
    7        2.194584      2.222180
    8        3.673112      3.853494
    9        4.786461      5.202222
   10        5.352709      5.862360
   11        5.386579      6.026481
   12        5.766898      6.413869
   13        6.042182      6.626444
   14        6.149348      6.783032
   15        6.490081      7.192562
   16        6.978614      7.702439
   17        7.393330      7.909160
   18        8.816564      9.168088
   19       20.471068     20.613036
   20       23.034263     23.161495
   21       23.500132     23.614794
   22       25.666226     25.714661
   23       26.654520     26.788638
   24       27.600705     27.611709
 
  0.4736842E+00  0.1052632E+00  0.3742002E-15  0.3499052E-02
    1      -55.961817    -55.247824
    2      -55.948786    -55.234451
    3      -55.903984    -55.187930
    4      -55.891032    -55.174642
    5      -55.882637    -55.166170
    6      -55.869421    -55.152602
    7        2.793260      2.856967
    8        3.302751      3.419568
    9        5.012375      5.448605
   10        5.212048      5.677342
   11        5.481990      6.122324
   12        5.608912      6.251509
   13        6.027918      6.638224
   14        6.071633      6.695957
   15        6.655868      7.365338
   16        6.820235      7.536884
   17        7.675094      8.155032
   18        8.133521      8.556438
   19       21.426146     21.562997
   20       22.436182     22.563767
   21       24.175949     24.308481
   22       25.385787     25.520717
   23       26.202956     26.237960
   24       26.845366     26.867710
 
  0.1578947E+00  0.1578947E+00  0.3742002E-15  0.1749526E-02
    1      -55.996567    -55.283191
    2      -55.963479    -55.249029
    3      -55.945559    -55.230697
    4      -55.868770    -55.152025
    5      -55.834596    -55.116728
    6      -55.816973    -55.098698
    7       -0.177869     -0.193395
    8        3.864054      4.226096
    9        3.914267      4.261191
   10        5.235402      5.884253
   11        5.415025      6.052469
   12        5.903199      6.583104
   13        6.626493      7.229556
   14        6.694218      7.315304
   15        6.847563      7.423863
   16        6.886330      7.530301
   17        7.534954      8.287432
   18       14.742486     14.849008
   19       15.864519     16.006382
   20       19.187962     19.264593
   21       24.362955     24.459646
   22       27.271510     27.319663
   23       28.240128     28.282931
   24       30.835001     30.991470
 
  0.2105263E+00  0.1578947E+00  0.3742002E-15  0.3499052E-02
    1      -55.999819    -55.286590
    2      -55.956455    -55.241812
    3      -55.933162    -55.217995
    4      -55.885311    -55.169064
    5      -55.840857    -55.123149
    6      -55.817922    -55.099693
    7        0.193922      0.181321
    8        3.939726      4.296548
    9        4.056418      4.406565
   10        5.178879      5.823294
   11        5.398241      6.019676
   12        6.049945      6.735250
   13        6.386870      7.062198
   14        6.630755      7.168891
   15        6.667751      7.332052
   16        6.918335      7.458175
   17        7.529329      8.281234
   18       13.645579     13.782677
   19       16.059747     16.213039
   20       19.773309     19.860959
   21       24.553394     24.641733
   22       26.870302     26.934899
   23       28.147773     28.190040
   24       31.240126     31.187009
 
  0.2631579E+00  0.1578947E+00  0.3742002E-15  0.3499052E-02
    1      -56.000227    -55.287084
    2      -55.947820    -55.232948
    3      -55.920211    -55.204729
    4      -55.902380    -55.186655
    5      -55.848663    -55.131156
    6      -55.821701    -55.103584
    7        0.654140      0.646874
    8        3.995239      4.336953
    9        4.227282      4.585184
   10        5.143163      5.783485
   11        5.387202      5.986905
   12        6.148227      6.811342
   13        6.205350      6.896487
   14        6.496267      7.069122
   15        6.527285      7.144160
   16        6.982811      7.525087
   17        7.484778      8.233909
   18       12.326816     12.500948
   19       16.630973     16.791689
   20       20.494298     20.593166
   21       24.773721     24.851608
   22       25.545678     25.629625
   23       28.785852     28.828913
   24       30.324588     30.284294
 
  0.3157895E+00  0.1578947E+00  0.3742002E-15  0.3499052E-02
    1      -55.999024    -55.285915
    2      -55.938013    -55.222872
    3      -55.919362    -55.204169
    4      -55.907185    -55.191373
    5      -55.857757    -55.140491
    6      -55.827357    -55.109412
    7        1.185927      1.188299
    8        3.997214      4.311940
    9        4.418142      4.786766
   10        5.131945      5.768790
   11        5.379208      5.948736
   12        5.921688      6.574475
   13        6.358929      6.962163
   14        6.367431      6.993668
   15        6.411341      7.064829
   16        7.068749      7.610022
   17        7.406013      8.150657
   18       11.067010     11.285513
   19       17.327436     17.492835
   20       21.335007     21.444270
   21       24.280864     24.382602
   22       25.045885     25.111452
   23       29.343687     29.348893
   24       29.376320     29.386855
 
  0.3684211E+00  0.1578947E+00  0.3742002E-15  0.3499052E-02
    1      -55.994904    -55.281748
    2      -55.936301    -55.221614
    3      -55.927020    -55.211579
    4      -55.894427    -55.178279
    5      -55.868257    -55.151261
    6      -55.835344    -55.117623
    7        1.763827      1.783326
    8        3.908648      4.181806
    9        4.621402      5.003448
   10        5.148465      5.782750
   11        5.359779      5.889075
   12        5.715854      6.360479
   13        6.271342      6.875184
   14        6.308019      6.896107
   15        6.533710      7.237772
   16        7.187240      7.720435
   17        7.299239      8.038181
   18        9.932638     10.206690
   19       18.110540     18.276584
   20       22.281039     22.399207
   21       23.081650     23.199698
   22       25.385268     25.437114
   23       28.207491     28.336398
   24       28.472535     28.456448
 
  0.4210526E+00  0.1578947E+00  0.3742002E-15  0.3499052E-02
    1      -55.988059    -55.274768
    2      -55.952498    -55.238272