unknown system                          
           1
     2.797036    0.000000    0.000000
     0.000000    2.797036    0.000000
     0.000000    0.000000    2.797036
   Ni
   2
unknown system                          
           1
     2.787478    0.000000   -0.000000
     0.000000    2.787478    0.000000
     0.000000    0.000000    2.787478
   Ni
   2
Direct configuration=     1
   0.50000000  0.50000000  0.50000000
   0.00000000  0.00000000  0.00000000
unknown system                          
           1
     2.791111    0.000000   -0.000000
     0.000000    2.791111    0.000000
     0.000000    0.000000    2.791111
   Ni
   2
Direct configuration=     2
   0.50000000  0.50000000  0.50000000
  -0.00000000  0.00000000 -0.00000000
unknown system                          
           1
     2.791111    0.000000   -0.000000
     0.000000    2.791111    0.000000
     0.000000    0.000000    2.791111
   Ni
   2
Direct configuration=     3
   0.50000000  0.50000000  0.50000000
  -0.00000000  0.00000000 -0.00000000
