   2   2   0   0
  0.1087180E+02  0.2791111E-09  0.2791111E-09  0.2791111E-09  0.5000000E-15
  1.000000000000000E-004
  CAR 
 final                                   
     38.72499445    -60.54464717  301      7.74628414      1.00000000
    -60.545  0.0000E+00  0.0000E+00  0.0000E+00  0.0000E+00
    -60.214  0.0000E+00  0.0000E+00  0.0000E+00  0.0000E+00
    -59.883  0.0000E+00  0.0000E+00  0.0000E+00  0.0000E+00
    -59.552  0.0000E+00  0.0000E+00  0.0000E+00  0.0000E+00
    -59.221  0.0000E+00  0.0000E+00  0.0000E+00  0.0000E+00
    -58.890  0.0000E+00  0.0000E+00  0.0000E+00  0.0000E+00
    -58.559  0.0000E+00  0.0000E+00  0.0000E+00  0.0000E+00
    -58.228  0.0000E+00  0.0000E+00  0.0000E+00  0.0000E+00
    -57.897  0.0000E+00  0.0000E+00  0.0000E+00  0.0000E+00
    -57.567  0.0000E+00  0.0000E+00  0.0000E+00  0.0000E+00
    -57.236  0.0000E+00  0.0000E+00  0.0000E+00  0.0000E+00
    -56.905  0.0000E+00  0.0000E+00  0.0000E+00  0.0000E+00
    -56.574  0.0000E+00  0.0000E+00  0.0000E+00  0.0000E+00
    -56.243  0.0000E+00  0.0000E+00  0.0000E+00  0.0000E+00
    -55.912  0.3020E+02  0.0000E+00  0.2587E+01  0.0000E+00
    -55.581  0.0000E+00  0.0000E+00  0.6000E+01  0.0000E+00
    -55.250  0.0000E+00  0.1770E+02  0.6000E+01  0.1800E+01
    -54.919  0.0000E+00  0.0000E+00  0.6000E+01  0.6000E+01
    -54.588  0.0000E+00  0.0000E+00  0.6000E+01  0.6000E+01
    -54.258  0.0000E+00  0.0000E+00  0.6000E+01  0.6000E+01
    -53.927  0.0000E+00  0.0000E+00  0.6000E+01  0.6000E+01
    -53.596  0.0000E+00  0.0000E+00  0.6000E+01  0.6000E+01
    -53.265  0.0000E+00  0.0000E+00  0.6000E+01  0.6000E+01
    -52.934  0.0000E+00  0.0000E+00  0.6000E+01  0.6000E+01
    -52.603  0.0000E+00  0.0000E+00  0.6000E+01  0.6000E+01
    -52.272  0.0000E+00  0.0000E+00  0.6000E+01  0.6000E+01
    -51.941  0.0000E+00  0.0000E+00  0.6000E+01  0.6000E+01
    -51.610  0.0000E+00  0.0000E+00  0.6000E+01  0.6000E+01
    -51.279  0.0000E+00  0.0000E+00  0.6000E+01  0.6000E+01
    -50.949  0.0000E+00  0.0000E+00  0.6000E+01  0.6000E+01
    -50.618  0.0000E+00  0.0000E+00  0.6000E+01  0.6000E+01
    -50.287  0.0000E+00  0.0000E+00  0.6000E+01  0.6000E+01
    -49.956  0.0000E+00  0.0000E+00  0.6000E+01  0.6000E+01
    -49.625  0.0000E+00  0.0000E+00  0.6000E+01  0.6000E+01
    -49.294  0.0000E+00  0.0000E+00  0.6000E+01  0.6000E+01
    -48.963  0.0000E+00  0.0000E+00  0.6000E+01  0.6000E+01
    -48.632  0.0000E+00  0.0000E+00  0.6000E+01  0.6000E+01
    -48.301  0.0000E+00  0.0000E+00  0.6000E+01  0.6000E+01
    -47.970  0.0000E+00  0.0000E+00  0.6000E+01  0.6000E+01
    -47.640  0.0000E+00  0.0000E+00  0.6000E+01  0.6000E+01
    -47.309  0.0000E+00  0.0000E+00  0.6000E+01  0.6000E+01
    -46.978  0.0000E+00  0.0000E+00  0.6000E+01  0.6000E+01
    -46.647  0.0000E+00  0.0000E+00  0.6000E+01  0.6000E+01
    -46.316  0.0000E+00  0.0000E+00  0.6000E+01  0.6000E+01
    -45.985  0.0000E+00  0.0000E+00  0.6000E+01  0.6000E+01
    -45.654  0.0000E+00  0.0000E+00  0.6000E+01  0.6000E+01
    -45.323  0.0000E+00  0.0000E+00  0.6000E+01  0.6000E+01
    -44.992  0.0000E+00  0.0000E+00  0.6000E+01  0.6000E+01
    -44.662  0.0000E+00  0.0000E+00  0.6000E+01  0.6000E+01
    -44.331  0.0000E+00  0.0000E+00  0.6000E+01  0.6000E+01
    -44.000  0.0000E+00  0.0000E+00  0.6000E+01  0.6000E+01
    -43.669  0.0000E+00  0.0000E+00  0.6000E+01  0.6000E+01
    -43.338  0.0000E+00  0.0000E+00  0.6000E+01  0.6000E+01
    -43.007  0.0000E+00  0.0000E+00  0.6000E+01  0.6000E+01
    -42.676  0.0000E+00  0.0000E+00  0.6000E+01  0.6000E+01
    -42.345  0.0000E+00  0.0000E+00  0.6000E+01  0.6000E+01
    -42.014  0.0000E+00  0.0000E+00  0.6000E+01  0.6000E+01
    -41.683  0.0000E+00  0.0000E+00  0.6000E+01  0.6000E+01
    -41.353  0.0000E+00  0.0000E+00  0.6000E+01  0.6000E+01
    -41.022  0.0000E+00  0.0000E+00  0.6000E+01  0.6000E+01
    -40.691  0.0000E+00  0.0000E+00  0.6000E+01  0.6000E+01
    -40.360  0.0000E+00  0.0000E+00  0.6000E+01  0.6000E+01
    -40.029  0.0000E+00  0.0000E+00  0.6000E+01  0.6000E+01
    -39.698  0.0000E+00  0.0000E+00  0.6000E+01  0.6000E+01
    -39.367  0.0000E+00  0.0000E+00  0.6000E+01  0.6000E+01
    -39.036  0.0000E+00  0.0000E+00  0.6000E+01  0.6000E+01
    -38.705  0.0000E+00  0.0000E+00  0.6000E+01  0.6000E+01
    -38.374  0.0000E+00  0.0000E+00  0.6000E+01  0.6000E+01
    -38.044  0.0000E+00  0.0000E+00  0.6000E+01  0.6000E+01
    -37.713  0.0000E+00  0.0000E+00  0.6000E+01  0.6000E+01
    -37.382  0.0000E+00  0.0000E+00  0.6000E+01  0.6000E+01
    -37.051  0.0000E+00  0.0000E+00  0.6000E+01  0.6000E+01
    -36.720  0.0000E+00  0.0000E+00  0.6000E+01  0.6000E+01
    -36.389  0.0000E+00  0.0000E+00  0.6000E+01  0.6000E+01
    -36.058  0.0000E+00  0.0000E+00  0.6000E+01  0.6000E+01
    -35.727  0.0000E+00  0.0000E+00  0.6000E+01  0.6000E+01
    -35.396  0.0000E+00  0.0000E+00  0.6000E+01  0.6000E+01
    -35.065  0.0000E+00  0.0000E+00  0.6000E+01  0.6000E+01
    -34.735  0.0000E+00  0.0000E+00  0.6000E+01  0.6000E+01
    -34.404  0.0000E+00  0.0000E+00  0.6000E+01  0.6000E+01
    -34.073  0.0000E+00  0.0000E+00  0.6000E+01  0.6000E+01
    -33.742  0.0000E+00  0.0000E+00  0.6000E+01  0.6000E+01
    -33.411  0.0000E+00  0.0000E+00  0.6000E+01  0.6000E+01
    -33.080  0.0000E+00  0.0000E+00  0.6000E+01  0.6000E+01
    -32.749  0.0000E+00  0.0000E+00  0.6000E+01  0.6000E+01
    -32.418  0.0000E+00  0.0000E+00  0.6000E+01  0.6000E+01
    -32.087  0.0000E+00  0.0000E+00  0.6000E+01  0.6000E+01
    -31.756  0.0000E+00  0.0000E+00  0.6000E+01  0.6000E+01
    -31.426  0.0000E+00  0.0000E+00  0.6000E+01  0.6000E+01
    -31.095  0.0000E+00  0.0000E+00  0.6000E+01  0.6000E+01
    -30.764  0.0000E+00  0.0000E+00  0.6000E+01  0.6000E+01
    -30.433  0.0000E+00  0.0000E+00  0.6000E+01  0.6000E+01
    -30.102  0.0000E+00  0.0000E+00  0.6000E+01  0.6000E+01
    -29.771  0.0000E+00  0.0000E+00  0.6000E+01  0.6000E+01
    -29.440  0.0000E+00  0.0000E+00  0.6000E+01  0.6000E+01
    -29.109  0.0000E+00  0.0000E+00  0.6000E+01  0.6000E+01
    -28.778  0.0000E+00  0.0000E+00  0.6000E+01  0.6000E+01
    -28.447  0.0000E+00  0.0000E+00  0.6000E+01  0.6000E+01
    -28.117  0.0000E+00  0.0000E+00  0.6000E+01  0.6000E+01
    -27.786  0.0000E+00  0.0000E+00  0.6000E+01  0.6000E+01
    -27.455  0.0000E+00  0.0000E+00  0.6000E+01  0.6000E+01
    -27.124  0.0000E+00  0.0000E+00  0.6000E+01  0.6000E+01
    -26.793  0.0000E+00  0.0000E+00  0.6000E+01  0.6000E+01
    -26.462  0.0000E+00  0.0000E+00  0.6000E+01  0.6000E+01
    -26.131  0.0000E+00  0.0000E+00  0.6000E+01  0.6000E+01
    -25.800  0.0000E+00  0.0000E+00  0.6000E+01  0.6000E+01
    -25.469  0.0000E+00  0.0000E+00  0.6000E+01  0.6000E+01
    -25.138  0.0000E+00  0.0000E+00  0.6000E+01  0.6000E+01
    -24.808  0.0000E+00  0.0000E+00  0.6000E+01  0.6000E+01
    -24.477  0.0000E+00  0.0000E+00  0.6000E+01  0.6000E+01
    -24.146  0.0000E+00  0.0000E+00  0.6000E+01  0.6000E+01
    -23.815  0.0000E+00  0.0000E+00  0.6000E+01  0.6000E+01
    -23.484  0.0000E+00  0.0000E+00  0.6000E+01  0.6000E+01
    -23.153  0.0000E+00  0.0000E+00  0.6000E+01  0.6000E+01
    -22.822  0.0000E+00  0.0000E+00  0.6000E+01  0.6000E+01
    -22.491  0.0000E+00  0.0000E+00  0.6000E+01  0.6000E+01
    -22.160  0.0000E+00  0.0000E+00  0.6000E+01  0.6000E+01
    -21.829  0.0000E+00  0.0000E+00  0.6000E+01  0.6000E+01
    -21.499  0.0000E+00  0.0000E+00  0.6000E+01  0.6000E+01
    -21.168  0.0000E+00  0.0000E+00  0.6000E+01  0.6000E+01
    -20.837  0.0000E+00  0.0000E+00  0.6000E+01  0.6000E+01
    -20.506  0.0000E+00  0.0000E+00  0.6000E+01  0.6000E+01
    -20.175  0.0000E+00  0.0000E+00  0.6000E+01  0.6000E+01
    -19.844  0.0000E+00  0.0000E+00  0.6000E+01  0.6000E+01
    -19.513  0.0000E+00  0.0000E+00  0.6000E+01  0.6000E+01
    -19.182  0.0000E+00  0.0000E+00  0.6000E+01  0.6000E+01
    -18.851  0.0000E+00  0.0000E+00  0.6000E+01  0.6000E+01
    -18.520  0.0000E+00  0.0000E+00  0.6000E+01  0.6000E+01
    -18.190  0.0000E+00  0.0000E+00  0.6000E+01  0.6000E+01
    -17.859  0.0000E+00  0.0000E+00  0.6000E+01  0.6000E+01
    -17.528  0.0000E+00  0.0000E+00  0.6000E+01  0.6000E+01
    -17.197  0.0000E+00  0.0000E+00  0.6000E+01  0.6000E+01
    -16.866  0.0000E+00  0.0000E+00  0.6000E+01  0.6000E+01
    -16.535  0.0000E+00  0.0000E+00  0.6000E+01  0.6000E+01
    -16.204  0.0000E+00  0.0000E+00  0.6000E+01  0.6000E+01
    -15.873  0.0000E+00  0.0000E+00  0.6000E+01  0.6000E+01
    -15.542  0.0000E+00  0.0000E+00  0.6000E+01  0.6000E+01
    -15.212  0.0000E+00  0.0000E+00  0.6000E+01  0.6000E+01
    -14.881  0.0000E+00  0.0000E+00  0.6000E+01  0.6000E+01
    -14.550  0.0000E+00  0.0000E+00  0.6000E+01  0.6000E+01
    -14.219  0.0000E+00  0.0000E+00  0.6000E+01  0.6000E+01
    -13.888  0.0000E+00  0.0000E+00  0.6000E+01  0.6000E+01
    -13.557  0.0000E+00  0.0000E+00  0.6000E+01  0.6000E+01
    -13.226  0.0000E+00  0.0000E+00  0.6000E+01  0.6000E+01
    -12.895  0.0000E+00  0.0000E+00  0.6000E+01  0.6000E+01
    -12.564  0.0000E+00  0.0000E+00  0.6000E+01  0.6000E+01
    -12.233  0.0000E+00  0.0000E+00  0.6000E+01  0.6000E+01
    -11.903  0.0000E+00  0.0000E+00  0.6000E+01  0.6000E+01
    -11.572  0.0000E+00  0.0000E+00  0.6000E+01  0.6000E+01
    -11.241  0.0000E+00  0.0000E+00  0.6000E+01  0.6000E+01
    -10.910  0.0000E+00  0.0000E+00  0.6000E+01  0.6000E+01
    -10.579  0.0000E+00  0.0000E+00  0.6000E+01  0.6000E+01
    -10.248  0.0000E+00  0.0000E+00  0.6000E+01  0.6000E+01
     -9.917  0.0000E+00  0.0000E+00  0.6000E+01  0.6000E+01
     -9.586  0.0000E+00  0.0000E+00  0.6000E+01  0.6000E+01
     -9.255  0.0000E+00  0.0000E+00  0.6000E+01  0.6000E+01
     -8.924  0.0000E+00  0.0000E+00  0.6000E+01  0.6000E+01
     -8.594  0.0000E+00  0.0000E+00  0.6000E+01  0.6000E+01
     -8.263  0.0000E+00  0.0000E+00  0.6000E+01  0.6000E+01
     -7.932  0.0000E+00  0.0000E+00  0.6000E+01  0.6000E+01
     -7.601  0.0000E+00  0.0000E+00  0.6000E+01  0.6000E+01
     -7.270  0.0000E+00  0.0000E+00  0.6000E+01  0.6000E+01
     -6.939  0.0000E+00  0.0000E+00  0.6000E+01  0.6000E+01
     -6.608  0.0000E+00  0.0000E+00  0.6000E+01  0.6000E+01
     -6.277  0.0000E+00  0.0000E+00  0.6000E+01  0.6000E+01
     -5.946  0.0000E+00  0.0000E+00  0.6000E+01  0.6000E+01
     -5.615  0.0000E+00  0.0000E+00  0.6000E+01  0.6000E+01
     -5.285  0.0000E+00  0.0000E+00  0.6000E+01  0.6000E+01
     -4.954  0.0000E+00  0.0000E+00  0.6000E+01  0.6000E+01
     -4.623  0.0000E+00  0.0000E+00  0.6000E+01  0.6000E+01
     -4.292  0.0000E+00  0.0000E+00  0.6000E+01  0.6000E+01
     -3.961  0.0000E+00  0.0000E+00  0.6000E+01  0.6000E+01
     -3.630  0.0000E+00  0.0000E+00  0.6000E+01  0.6000E+01
     -3.299  0.0000E+00  0.0000E+00  0.6000E+01  0.6000E+01
     -2.968  0.0000E+00  0.0000E+00  0.6000E+01  0.6000E+01
     -2.637  0.0000E+00  0.0000E+00  0.6000E+01  0.6000E+01
     -2.306  0.0000E+00  0.0000E+00  0.6000E+01  0.6000E+01
     -1.976  0.0000E+00  0.0000E+00  0.6000E+01  0.6000E+01
     -1.645  0.0000E+00  0.0000E+00  0.6000E+01  0.6000E+01
     -1.314  0.0000E+00  0.0000E+00  0.6000E+01  0.6000E+01
     -0.983  0.2737E-01  0.2992E-01  0.6003E+01  0.6004E+01
     -0.652  0.4986E-01  0.5068E-01  0.6016E+01  0.6017E+01
     -0.321  0.6490E-01  0.6561E-01  0.6035E+01  0.6036E+01
      0.010  0.7848E-01  0.7863E-01  0.6059E+01  0.6060E+01
      0.341  0.9276E-01  0.9230E-01  0.6087E+01  0.6088E+01
      0.672  0.1069E+00  0.1057E+00  0.6120E+01  0.6121E+01
      1.003  0.1219E+00  0.1196E+00  0.6158E+01  0.6158E+01
      1.333  0.1397E+00  0.1356E+00  0.6201E+01  0.6201E+01
      1.664  0.1611E+00  0.1537E+00  0.6251E+01  0.6248E+01
      1.995  0.1887E+00  0.1754E+00  0.6308E+01  0.6303E+01
      2.326  0.2289E+00  0.2034E+00  0.6377E+01  0.6365E+01
      2.657  0.2948E+00  0.2428E+00  0.6462E+01  0.6439E+01
      2.988  0.4647E+00  0.3192E+00  0.6589E+01  0.6536E+01
      3.319  0.7957E+00  0.4130E+00  0.6808E+01  0.6653E+01
      3.650  0.1146E+01  0.9044E+00  0.7127E+01  0.6865E+01
      3.981  0.2068E+01  0.1056E+01  0.7635E+01  0.7150E+01
      4.312  0.7920E+00  0.1676E+01  0.8099E+01  0.7610E+01
      4.642  0.4422E+01  0.9540E+00  0.8755E+01  0.8032E+01
      4.973  0.2826E+01  0.5956E+00  0.9728E+01  0.8275E+01
      5.304  0.3892E+01  0.2881E+01  0.1070E+02  0.9242E+01
      5.635  0.1070E+01  0.2553E+01  0.1149E+02  0.1013E+02
      5.966  0.1050E+01  0.2557E+01  0.1180E+02  0.1113E+02
      6.297  0.1823E+01  0.8034E+00  0.1216E+02  0.1164E+02
      6.628  0.3829E+01  0.9941E+00  0.1306E+02  0.1190E+02
      6.959  0.4367E+01  0.2424E+01  0.1443E+02  0.1231E+02
      7.290  0.2302E+01  0.4258E+01  0.1587E+02  0.1337E+02
      7.621  0.7779E+00  0.4548E+01  0.1647E+02  0.1503E+02
      7.951  0.3003E+00  0.1773E+01  0.1663E+02  0.1589E+02
      8.282  0.2985E+00  0.1107E+01  0.1673E+02  0.1649E+02
      8.613  0.3434E+00  0.3838E+00  0.1683E+02  0.1667E+02
      8.944  0.3072E+00  0.3800E+00  0.1694E+02  0.1680E+02
      9.275  0.2943E+00  0.3419E+00  0.1704E+02  0.1691E+02
      9.606  0.2814E+00  0.3222E+00  0.1714E+02  0.1702E+02
      9.937  0.2668E+00  0.3030E+00  0.1723E+02  0.1713E+02
     10.268  0.2542E+00  0.2846E+00  0.1731E+02  0.1722E+02
     10.599  0.2404E+00  0.2677E+00  0.1739E+02  0.1732E+02
     10.929  0.2246E+00  0.2508E+00  0.1747E+02  0.1740E+02
     11.260  0.2101E+00  0.2327E+00  0.1754E+02  0.1748E+02
     11.591  0.1951E+00  0.2170E+00  0.1761E+02  0.1756E+02
     11.922  0.1785E+00  0.1989E+00  0.1767E+02  0.1762E+02
     12.253  0.1621E+00  0.1804E+00  0.1773E+02  0.1769E+02
     12.584  0.1467E+00  0.1650E+00  0.1778E+02  0.1774E+02
     12.915  0.1285E+00  0.1453E+00  0.1782E+02  0.1780E+02
     13.246  0.1157E+00  0.1264E+00  0.1786E+02  0.1784E+02
     13.577  0.8994E-01  0.1032E+00  0.1790E+02  0.1788E+02
     13.908  0.6588E-01  0.8076E-01  0.1792E+02  0.1791E+02
     14.238  0.1279E+00  0.5999E-01  0.1794E+02  0.1793E+02
     14.569  0.3227E+00  0.4850E-01  0.1802E+02  0.1795E+02
     14.900  0.4374E+00  0.3734E+00  0.1815E+02  0.1804E+02
     15.231  0.3848E+00  0.4861E+00  0.1829E+02  0.1819E+02
     15.562  0.3733E+00  0.3909E+00  0.1842E+02  0.1833E+02
     15.893  0.3092E+00  0.3355E+00  0.1852E+02  0.1846E+02
     16.224  0.2908E+00  0.3290E+00  0.1863E+02  0.1857E+02
     16.555  0.2998E+00  0.2953E+00  0.1872E+02  0.1867E+02
     16.886  0.3392E+00  0.3569E+00  0.1884E+02  0.1877E+02
     17.217  0.3412E+00  0.3565E+00  0.1895E+02  0.1889E+02
     17.547  0.3703E+00  0.3590E+00  0.1907E+02  0.1901E+02
     17.878  0.3580E+00  0.3799E+00  0.1919E+02  0.1913E+02
     18.209  0.3601E+00  0.3651E+00  0.1931E+02  0.1926E+02
     18.540  0.3525E+00  0.3615E+00  0.1943E+02  0.1938E+02
     18.871  0.3544E+00  0.3624E+00  0.1955E+02  0.1950E+02
     19.202  0.3490E+00  0.3516E+00  0.1966E+02  0.1961E+02
     19.533  0.3484E+00  0.3449E+00  0.1978E+02  0.1973E+02
     19.864  0.3379E+00  0.3660E+00  0.1989E+02  0.1985E+02
     20.195  0.3353E+00  0.3364E+00  0.2000E+02  0.1996E+02
     20.526  0.3357E+00  0.3371E+00  0.2012E+02  0.2007E+02
     20.856  0.3344E+00  0.3393E+00  0.2023E+02  0.2019E+02
     21.187  0.3264E+00  0.3295E+00  0.2034E+02  0.2030E+02
     21.518  0.3241E+00  0.3336E+00  0.2045E+02  0.2041E+02
     21.849  0.3029E+00  0.3121E+00  0.2055E+02  0.2052E+02
     22.180  0.3064E+00  0.3122E+00  0.2065E+02  0.2062E+02
     22.511  0.3100E+00  0.3109E+00  0.2075E+02  0.2072E+02
     22.842  0.3147E+00  0.3177E+00  0.2086E+02  0.2082E+02
     23.173  0.3045E+00  0.3082E+00  0.2096E+02  0.2093E+02
     23.504  0.3178E+00  0.3202E+00  0.2106E+02  0.2103E+02
     23.835  0.3434E+00  0.3378E+00  0.2117E+02  0.2114E+02
     24.165  0.3519E+00  0.3574E+00  0.2129E+02  0.2126E+02
     24.496  0.3790E+00  0.3762E+00  0.2141E+02  0.2138E+02
     24.827  0.4066E+00  0.4118E+00  0.2154E+02  0.2151E+02
     25.158  0.3802E+00  0.3890E+00  0.2167E+02  0.2164E+02
     25.489  0.4456E+00  0.4389E+00  0.2181E+02  0.2177E+02
     25.820  0.4750E+00  0.4853E+00  0.2196E+02  0.2193E+02
     26.151  0.4710E+00  0.4836E+00  0.2212E+02  0.2209E+02
     26.482  0.4559E+00  0.4650E+00  0.2227E+02  0.2225E+02
     26.813  0.4026E+00  0.3910E+00  0.2241E+02  0.2239E+02
     27.144  0.4153E+00  0.4271E+00  0.2255E+02  0.2253E+02
     27.474  0.5419E+00  0.5247E+00  0.2271E+02  0.2269E+02
     27.805  0.5285E+00  0.5332E+00  0.2289E+02  0.2287E+02
     28.136  0.4959E+00  0.5028E+00  0.2306E+02  0.2304E+02
     28.467  0.4701E+00  0.4830E+00  0.2323E+02  0.2321E+02
     28.798  0.4005E+00  0.4006E+00  0.2337E+02  0.2336E+02
     29.129  0.3898E+00  0.3935E+00  0.2351E+02  0.2349E+02
     29.460  0.3704E+00  0.3781E+00  0.2363E+02  0.2361E+02
     29.791  0.3032E+00  0.3226E+00  0.2374E+02  0.2373E+02
     30.122  0.2674E+00  0.2695E+00  0.2384E+02  0.2383E+02
     30.453  0.1809E+00  0.1957E+00  0.2391E+02  0.2391E+02
     30.783  0.9361E-01  0.1011E+00  0.2396E+02  0.2395E+02
     31.114  0.4031E-01  0.4239E-01  0.2398E+02  0.2398E+02
     31.445  0.1317E-01  0.1777E-01  0.2399E+02  0.2399E+02
     31.776  0.7364E-02  0.7386E-02  0.2399E+02  0.2399E+02
     32.107  0.6092E-02  0.6037E-02  0.2399E+02  0.2399E+02
     32.438  0.5106E-02  0.5010E-02  0.2400E+02  0.2400E+02
     32.769  0.4150E-02  0.4016E-02  0.2400E+02  0.2400E+02
     33.100  0.3266E-02  0.3373E-02  0.2400E+02  0.2400E+02
     33.431  0.2593E-02  0.2314E-02  0.2400E+02  0.2400E+02
     33.762  0.1021E-02  0.7264E-03  0.2400E+02  0.2400E+02
     34.092  0.7258E-04  0.4607E-06  0.2400E+02  0.2400E+02
     34.423  0.0000E+00  0.0000E+00  0.2400E+02  0.2400E+02
     34.754  0.0000E+00  0.0000E+00  0.2400E+02  0.2400E+02
     35.085  0.0000E+00  0.0000E+00  0.2400E+02  0.2400E+02
     35.416  0.0000E+00  0.0000E+00  0.2400E+02  0.2400E+02
     35.747  0.0000E+00  0.0000E+00  0.2400E+02  0.2400E+02
     36.078  0.0000E+00  0.0000E+00  0.2400E+02  0.2400E+02
     36.409  0.0000E+00  0.0000E+00  0.2400E+02  0.2400E+02
     36.740  0.0000E+00  0.0000E+00  0.2400E+02  0.2400E+02
     37.071  0.0000E+00  0.0000E+00  0.2400E+02  0.2400E+02
     37.401  0.0000E+00  0.0000E+00  0.2400E+02  0.2400E+02
     37.732  0.0000E+00  0.0000E+00  0.2400E+02  0.2400E+02
     38.063  0.0000E+00  0.0000E+00  0.2400E+02  0.2400E+02
     38.394  0.0000E+00  0.0000E+00  0.2400E+02  0.2400E+02
     38.725  0.0000E+00  0.0000E+00  0.2400E+02  0.2400E+02
