    2    2    1    2
  0.1087180E+02  0.2791111E-09  0.2791111E-09  0.2791111E-09  0.5000000E-15
  1.000000000000000E-004
  CAR 
 final                                   
     32    220     24
 
  0.3742002E-15  0.3742002E-15  0.3742002E-15  0.1457938E-03
    1      -55.976944    -55.278357
    2      -55.976944    -55.278357
    3      -55.976944    -55.278357
    4      -55.807599    -55.104670
    5      -55.807599    -55.104670
    6      -55.807599    -55.104670
    7       -1.183485     -1.203918
    8        3.551682      3.896087
    9        3.551682      3.896087
   10        5.460059      6.111272
   11        5.460059      6.111272
   12        5.460059      6.111272
   13        6.875026      7.397058
   14        6.875026      7.397058
   15        7.491757      8.227577
   16        7.491757      8.227577
   17        7.491757      8.227577
   18       17.508593     17.532113
   19       17.508593     17.532113
   20       17.508593     17.532113
   21       23.348561     23.472593
   22       23.348561     23.472593
   23       27.347211     27.528261
   24       34.212738     34.100960
 
  0.5263158E-01  0.3742002E-15  0.3742002E-15  0.8747631E-03
    1      -55.974681    -55.276068
    2      -55.974134    -55.275480
    3      -55.974134    -55.275480
    4      -55.809596    -55.106733
    5      -55.808667    -55.105765
    6      -55.808667    -55.105765
    7       -1.125884     -1.146254
    8        3.571178      3.914635
    9        3.574670      3.920096
   10        5.459600      6.110229
   11        5.459600      6.110229
   12        5.473605      6.125343
   13        6.853382      7.374118
   14        6.883550      7.406121
   15        7.452012      8.183701
   16        7.452012      8.183701
   17        7.478301      8.213527
   18       17.032765     17.070544
   19       17.611626     17.639483
   20       17.611626     17.639483
   21       23.369789     23.492730
   22       23.716409     23.829043
   23       27.558648     27.737085
   24       33.712923     33.648916
 
  0.1052632E+00  0.3742002E-15  0.3742002E-15  0.8747631E-03
    1      -55.973801    -55.275209
    2      -55.969936    -55.271193
    3      -55.969936    -55.271193
    4      -55.816651    -55.114003
    5      -55.811999    -55.109168
    6      -55.811999    -55.109168
    7       -0.954039     -0.974185
    8        3.625808      3.966019
    9        3.642425      3.990907
   10        5.458837      6.107790
   11        5.458837      6.107790
   12        5.513886      6.167191
   13        6.788833      7.305710
   14        6.908093      7.432149
   15        7.336536      8.056984
   16        7.336536      8.056984
   17        7.436629      8.169985
   18       15.916370     15.980924
   19       17.913894     17.953462
   20       17.913894     17.953462
   21       23.434023     23.553675
   22       24.425990     24.524106
   23       28.278916     28.446143
   24       32.633594     32.549433
 
  0.1578947E+00  0.3742002E-15  0.3742002E-15  0.8747631E-03
    1      -55.972121    -55.273550
    2      -55.964170    -55.265273
    3      -55.964170    -55.265273
    4      -55.826111    -55.123777
    5      -55.817253    -55.114553
    6      -55.817253    -55.114553
    7       -0.671095     -0.690747
    8        3.706296      4.039860
    9        3.753063      4.106585
   10        5.460612      6.107001
   11        5.460612      6.107001
   12        5.579906      6.235787
   13        6.682685      7.193225
   14        6.948103      7.474314
   15        7.162215      7.867220
   16        7.162215      7.867220
   17        7.368016      8.098346
   18       14.563695     14.656339
   19       18.398409     18.454184
   20       18.398409     18.454184
   21       23.543099     23.657285
   22       24.996599     25.089615
   23       29.595952     29.743293
   24       31.441298     31.368481
 
  0.2105263E+00  0.3742002E-15  0.3742002E-15  0.8747631E-03
    1      -55.968728    -55.270171
    2      -55.956308    -55.257206
    3      -55.956308    -55.257206
    4      -55.838507    -55.136578
    5      -55.824443    -55.121923
    6      -55.824443    -55.121923
    7       -0.282738     -0.301374
    8        3.796882      4.118297
    9        3.904030      4.264541
   10        5.468516      6.111783
   11        5.468516      6.111783
   12        5.669998      6.329412
   13        6.537125      7.039008
   14        6.949785      7.529963
   15        6.949785      7.638176
   16        7.001553      7.638176
   17        7.274702      8.000935
   18       13.171567     13.294990
   19       19.042912     19.116317
   20       19.042912     19.116317
   21       23.700126     23.806725
   22       25.375454     25.464355
   23       30.284872     30.226848
   24       31.385722     31.521194
 
  0.2631579E+00  0.3742002E-15  0.3742002E-15  0.8747631E-03
    1      -55.964632    -55.266057
    2      -55.946642    -55.247283
    3      -55.946642    -55.247283
    4      -55.853088    -55.151627
    5      -55.833385    -55.131091
    6      -55.833385    -55.131091
    7        0.202115      0.185529
    8        3.872366      4.172837
    9        4.091418      4.460783
   10        5.487237      6.127221
   11        5.487237      6.127221
   12        5.781857      6.445693
   13        6.355399      6.846546
   14        6.719585      7.392430
   15        6.719585      7.392430
   16        7.067872      7.597517
   17        7.159328      7.880527
   18       11.832248     11.993226
   19       19.824642     19.914813
   20       19.824642     19.914813
   21       23.909364     24.006339
   22       25.676312     25.757491
   23       29.212721     29.170035
   24       30.468490     30.563285
 
  0.3157895E+00  0.3742002E-15  0.3742002E-15  0.8747631E-03
    1      -55.958836    -55.260197
    2      -55.935428    -55.235772
    3      -55.935428    -55.235772
    4      -55.868513    -55.167553
    5      -55.844475    -55.142453
    6      -55.844475    -55.142452
    7        0.769595      0.757117
    8        3.898405      4.164841
    9        4.310252      4.690208
   10        5.521755      6.158745
   11        5.521755      6.158745
   12        5.912519      6.581572
   13        6.141423      6.620061
   14        6.488946      7.148551
   15        6.488946      7.148551
   16        7.025182      7.678418
   17        7.150143      7.740569
   18       10.604107     10.814028
   19       20.723212     20.827956
   20       20.723212     20.827956
   21       24.176171     24.261610
   22       25.985345     26.055924
   23       28.241778     28.215234
   24       29.123337     29.237931
 
  0.3684211E+00  0.3742002E-15  0.3742002E-15  0.8747631E-03
    1      -55.950870    -55.252094
    2      -55.922821    -55.222833
    3      -55.922821    -55.222833
    4      -55.884112    -55.183621
    5      -55.856026    -55.154306
    6      -55.856026    -55.154306
    7        1.398283      1.393978
    8        3.829360      4.045363
    9        4.554563      4.946664
   10        5.577453      6.212192
   11        5.577454      6.212192
   12        5.901511      6.366303
   13        6.058760      6.733702
   14        6.271097      6.920275
   15        6.271097      6.920275
   16        6.876135      7.585117
   17        7.258091      7.779733
   18        9.538548      9.811986
   19       21.721570     21.838070
   20       21.721570     21.838070
   21       24.506877     24.579045
   22       26.354612     26.413354
   23       27.376673     27.366922
   24       27.778663     27.904557
 
  0.4210526E+00  0.3742002E-15  0.3742002E-15  0.8747631E-03
    1      -55.941397    -55.242445
    2      -55.909678    -55.209339
    3      -55.909678    -55.209339
    4      -55.900644    -55.200633
    5      -55.869003    -55.167617
    6      -55.869003    -55.167617
    7        2.054517      2.066145
    8        3.615688      3.768007
    9        4.817555      5.223103
   10        5.641524      6.091591
   11        5.657819      6.291466
   12        5.657819      6.291466
   13        6.074760      6.716366
   14        6.074760      6.716366
   15        6.216557      6.897925
   16        6.716125      7.418301
   17        7.414716      7.920064
   18        8.683711      9.031707
   19       22.805587     22.930763
   20       22.805587     22.930763
   21       24.908609     24.966008
   22       26.460740     26.592266
   23       26.460789     26.623545
   24       26.616134     26.865608
 
  0.4736842E+00  0.3742002E-15  0.3742002E-15  0.8747631E-03
    1      -55.929074    -55.229830
    2      -55.915336    -55.215739
    3      -55.895861    -55.195166
    4      -55.895861    -55.195166
    5      -55.882073    -55.181021
    6      -55.882073    -55.181021
    7        2.687056      2.728102
    8        3.228255      3.317315
    9        5.091745      5.511710
   10        5.369131      5.804090
   11        5.767010      6.401197
   12        5.767010      6.401197
   13        5.905988      6.542700
   14        5.905988      6.542700
   15        6.381764      7.069935
   16        6.549798      7.244969
   17        7.663149      8.136288
   18        8.065889      8.485478
   19       23.963595     24.094279
   20       23.963595     24.094279
   21       25.185290     25.318190
   22       25.185290     25.318190
   23       25.388962     25.430401
   24       25.955677     25.980329
 
  0.5263158E-01  0.5263158E-01  0.3742002E-15  0.1749526E-02
    1      -55.976546    -55.277990
    2      -55.972618    -55.273935
    3      -55.970475    -55.271745
    4      -55.813769    -55.111023
    5      -55.809720    -55.106843
    6      -55.807553    -55.104626
    7       -1.068448     -1.088740
    8        3.592654      3.936191
    9        3.595056      3.940505
   10        5.433694      6.083061
   11        5.458523      6.108359
   12        5.512494      6.165446
   13        6.847895      7.368450
   14        6.877080      7.399288
   15        7.378947      8.105280
   16        7.411495      8.138915
   17        7.498539      8.234641
   18       17.045872     17.087800
   19       17.217169     17.259233
   20       17.712898     17.744765
   21       23.559597     23.676445
   22       23.939505     24.045213
   23       27.754106     27.930693
   24       33.202290     33.136961
 
  0.1052632E+00  0.5263158E-01  0.3742002E-15  0.3499052E-02
    1      -55.977313    -55.278807
    2      -55.969047    -55.270270
    3      -55.965174    -55.266312
    4      -55.821991    -55.119479
    5      -55.812943    -55.110141
    6      -55.808974    -55.106092
    7       -0.897228     -0.917247
    8        3.648174      3.989069
    9        3.660819      4.008836
   10        5.412189      6.059461
   11        5.456150      6.103669
   12        5.573301      6.228270
   13        6.791940      7.309497
   14        6.896718      7.420207
   15        7.241151      7.956137
   16        7.296278      8.012157
   17        7.483630      8.218769
   18       15.991839     16.059880
   19       17.437153     17.491177
   20       18.010581     18.053382
   21       23.686046     23.798199
   22       24.650735     24.741871
   23       28.429277     28.596647
   24       32.092776     32.040941
 
  0.1578947E+00  0.5263158E-01  0.3742002E-15  0.3499052E-02
    1      -55.977130    -55.278670
    2      -55.963467    -55.264539
    3      -55.958295    -55.259266
    4      -55.833101    -55.130927
    5      -55.818192    -55.115514
    6      -55.813389    -55.110616
    7       -0.615372     -0.634799
    8        3.729059      4.063609
    9        3.769666      4.122637
   10        5.400056      6.044699
   11        5.454962      6.098767
   12        5.652577      6.310244
   13        6.691015      7.203219
   14        6.936810      7.462591
   15        7.057196      7.757554
   16        7.122960      7.823027
   17        7.431051      8.163312
   18       14.637251     14.733129
   19       17.894430     17.964332
   20       18.488639     18.546681
   21       23.815429     23.922009
   22       25.276061     25.361705
   23       29.698004     29.846622
   24       30.848948     30.819221
 
  0.2105263E+00  0.5263158E-01  0.3742002E-15  0.3499052E-02
    1      -55.974860    -55.276425
    2      -55.955701    -55.256570
    3      -55.949506    -55.250267
    4      -55.846254    -55.144493
    5      -55.825277    -55.122777
    6      -55.819596    -55.116989
    7       -0.228705     -0.246944
    8        3.819874      4.142606
    9        3.918012      4.277980
   10        5.398758      6.040361
   11        5.458811      6.097514
   12        5.751045      6.412228
   13        6.552507      7.057788
   14        6.842292      7.519374
   15        6.913416      7.527036
   16        6.991225      7.596559
   17        7.347678      8.075764
   18       13.242016     13.368416
   19       18.501422     18.588217
   20       19.125844     19.200606
   21       23.991286     24.090475
   22       25.701407     25.783783
   23       29.612437     29.604389
   24       31.476412     31.690313
 
  0.2631579E+00  0.5263158E-01  0.3742002E-15  0.3499052E-02
    1      -55.971435    -55.272989
    2      -55.946151    -55.246767
    3      -55.939409    -55.239911
    4      -55.861331    -55.160035
    5      -55.834389    -55.132114
    6      -55.827831    -55.125441
    7        0.253686      0.237786
    8        3.895033      4.197255
    9        4.101713      4.470625
   10        5.411106      6.049558
   11        5.471153      6.102781
   12        5.868042      6.533588
   13        6.381158      6.879177
   14        6.613216      7.283273
   15        6.689272      7.356704
   16        7.058451      7.587946
   17        7.238713      7.961652
   18       11.898663     12.062192
   19       19.231769     19.333934
   20       19.900255     19.991051
   21       24.223691     24.313711
   22       26.042683     26.118624
   23       28.421035     28.437862
   24       30.529047     30.549346
 
  0.3157895E+00  0.5263158E-01  0.3742002E-15  0.3499052E-02
    1      -55.966139    -55.267632
    2      -55.934989    -55.235309
    3      -55.927776    -55.227976
    4      -55.877089    -55.176297
    5      -55.845066    -55.143053
    6      -55.837890    -55.135766
    7        0.817679      0.806371
    8        3.919761      4.188625
    9        4.315522      4.695235
   10        5.440993      6.076578
   11        5.493333      6.112778
   12        6.001791      6.672488
   13        6.185143      6.679409
   14        6.385375      7.042839
   15        6.469653      7.123856
   16        7.108916      7.669805
   17        7.141656      7.825949
   18       10.664368     10.876003
   19       20.062189     20.176566
   20       20.792044     20.896887
   21       24.520873     24.600187
   22       26.393827     26.460812
   23       27.277412     27.320921
   24       29.228960     29.404963
 
  0.3684211E+00  0.5263158E-01  0.3742002E-15  0.3499052E-02
    1      -55.958623    -55.259988
    2      -55.922649    -55.222643
    3      -55.915261    -55.215137
    4      -55.893233    -55.192928
    5      -55.856581    -55.154865
    6      -55.849287    -55.147459
    7        1.441471      1.439114
    8        3.848701      4.068211
    9        4.552941      4.945252
   10        5.492780      6.102640
   11        5.515983      6.126215
   12        5.984014      6.494346
   13        6.149696      6.818150
   14        6.170676      6.826228
   15        6.269291      6.913055
   16        6.962917      7.673481
   17        7.251019      7.772390
   18        9.588899      9.862649
   19       20.972224     21.094567
   20       21.784369     21.900614
   21       24.892358     24.959887
   22       26.168554     26.239336
   23       26.810718     26.868086
   24       27.827999     27.954587
 
  0.4210526E+00  0.5263158E-01  0.3742002E-15  0.3499052E-02
    1      -55.949151    -55.250335
    2      -55.909624    -55.209274
    3      -55.909040    -55.209188
    4      -55.902157    -55.201689
    5      -55.869245    -55.167860
    6      -55.861404    -55.159896
    7        2.091195      2.105916
    8        3.634360      3.791447
    9        4.805952      5.212769
   10        5.481332      5.986563
   11        5.570119      6.202535
   12        5.844830      6.420003
   13        5.977729      6.617910
   14        6.096971      6.732503
   15        6.308102      6.991022
   16        6.805134      7.508852
   17        7.411441      7.916144
   18        8.719555      9.066368
   19       21.943980     22.069174
   20       22.863323     22.988044
   21       25.081658     25.176182
   22       25.349762     25.405182
   23       26.510018     26.641202
   24       27.328971     27.377467
 
  0.4736842E+00  0.5263158E-01  0.3742002E-15  0.3499052E-02
    1      -55.937602    -55.238514
    2      -55.924021    -55.224585
    3      -55.895736    -55.195032
    4      -55.888348    -55.187529
    5      -55.882341    -55.181290
    6      -55.875115    -55.173951
    7        2.715997      2.761473
    8        3.250179      3.344479
    9        5.063910      5.488023
   10        5.307415      5.756450
   11        5.676039      6.308998
   12        5.812124      6.447561
   13        5.856516      6.472539
   14        5.956547      6.584573
   15        6.473144      7.162847
   16        6.640347      7.337045
   17        7.668040      8.139877
   18        8.084778      8.502589
   19       22.961620     23.083671
   20       24.011167     24.123150
   21       24.017315     24.147473
   22       25.236123     25.368538
   23       25.907047     25.951615
   24       26.579405     26.615205
 
  0.1052632E+00  0.1052632E+00  0.3742002E-15  0.1749526E-02
    1      -55.981169    -55.282795
    2      -55.965794    -55.266929
    3      -55.957462    -55.258411
    4      -55.832599    -55.130379
    5      -55.816028    -55.113297
    6      -55.807749    -55.104845
    7       -0.727897     -0.747481
    8        3.713175      4.055860
    9        3.714868      4.061409
   10        5.357825      6.001932
   11        5.448862      6.092174
   12        5.666016      6.324171
   13        6.779189      7.297645
   14        6.883206      7.405965
   15        7.068895      7.771888
   16        7.182300      7.885892
   17        7.515726      8.252565
   18       15.991599     16.065570
   19       16.562715     16.647633
   20       18.295679     18.347400
   21       23.972351     24.077504
   22       25.379458     25.453256
   23       28.963765     29.128421
   24       30.929746     30.916420
 
  0.1578947E+00  0.1052632E+00  0.3742002E-15  0.3499052E-02
    1      -55.983231    -55.284960
    2      -55.960127    -55.261107
    3      -55.948351    -55.249076
    4      -55.845526    -55.143698
    5      -55.821037    -55.118424
    6      -55.809520    -55.106655
    7       -0.449458     -0.468132
    8        3.792199      4.132328
    9        3.821282      4.169669
   10        5.315453      5.956081
   11        5.440245      6.076672
   12        5.773873      6.435723
   13        6.708366      7.225023
   14        6.860822      7.433970
   15        6.909384      7.549666
   16        7.013338      7.700263
   17        7.506008      8.242090
   18       14.821056     14.923090
   19       16.786304     16.885055
   20       18.755689     18.820094
   21       24.155937     24.255020
   22       26.168173     26.232804
   23       29.615100     29.628135
   24       30.056153     30.207955
 
  0.2105263E+00  0.1052632E+00  0.3742002E-15  0.3499052E-02
    1      -55.983558    -55.285354
    2      -55.952748    -55.253537
    3      -55.937799    -55.238273
    4      -55.860409    -55.159027
    5      -55.828101    -55.125661
    6      -55.813412    -55.110659
    7       -0.068040     -0.084964
    8        3.880062      4.209728
    9        3.964869      4.319951
   10        5.288173      5.925230
   11        5.434160      6.060668
   12        5.895722      6.561808
   13        6.592626      7.106455
   14        6.632603      7.307078
   15        6.813657      7.482987
   16        6.962700      7.490071
   17        7.457064      8.190233
   18       13.432840     13.565251
   19       17.325400     17.438476
   20       19.372166     19.450813
   21       24.345960     24.437456
   22       26.741201     26.804279
   23       28.297303     28.332895
   24       31.552911     31.512559
 
  0.2631579E+00  0.1052632E+00  0.3742002E-15  0.3499052E-02
    1      -55.981939    -55.283779
    2      -55.943574    -55.244118
    3      -55.926137    -55.226320
    4      -55.876666    -55.175776
    5      -55.836542    -55.134314
    6      -55.819630    -55.117050
    7        0.406577      0.392954
    8        3.951262      4.261946
    9        4.140447      4.504574
   10        5.278903      5.912536
   11        5.432972      6.044980
   12        6.030835      6.701753
   13        6.398552      6.961605
   14        6.448701      7.059779
   15        6.608547      7.261845
   16        7.031423      7.560516
   17        7.374604      8.103267
   18       12.082355     12.250802
   19       17.988170     18.113638
   20       20.125556     20.218193
   21       24.577924     24.660014
   22       27.018915     27.075697
   23       27.194482     27.254981
   24       30.489995     30.468235
 
  0.3157895E+00  0.1052632E+00  0.3742002E-15  0.3499052E-02
    1      -55.978483    -55.280295
    2      -55.932947    -55.233210
    3      -55.913907    -55.213784
    4      -55.893005    -55.192629
    5      -55.846408    -55.144432
    6      -55.827673    -55.125324
    7        0.959424      0.952003
    8        3.969595      4.249141
    9        4.342178      4.717508
   10        5.291032      5.921685
   11        5.434090      6.022945
   12        6.171030      6.809522
   13        6.177741      6.820943
   14        6.290915      6.854103
   15        6.421020      7.061121
   16        7.116811      7.644645
   17        7.264834      7.987882
   18       10.832525     11.046832
   19       18.744307     18.878391
   20       20.997513     21.102670
   21       24.867390     24.938369
   22       25.792245     25.869010
   23       27.642963     27.698717
   24       29.443105     29.432696
 
  0.3684211E+00  0.1052632E+00  0.3742002E-15  0.3499052E-02
    1      -55.972580    -55.274300
    2      -55.921191    -55.221144
    3      -55.909490    -55.209597
    4      -55.900960    -55.200507
    5      -55.858012    -55.156326
    6      -55.837682    -55.135591
    7        1.567479      1.571610
    8        3.891635      4.125114
    9        4.562990      4.951693
   10        5.327981      5.956446
   11        5.421696      5.971847
   12        5.960223      6.601143
   13        6.143968      6.682412
   14        6.268409      6.898098
   15        6.334148      7.016532
   16        7.133374      7.750784
   17        7.230146      7.850052
   18        9.730664     10.003538
   19       19.576414     19.714598
   20       21.972111     22.087640
   21       24.620071     24.715058
   22       25.226773     25.285305
   23       27.976934     28.200498
   24       28.158329     28.208158
 
  0.4210526E+00  0.1052632E+00  0.3742002E-15  0.3499052E-02
    1      -55.963973    -55.265521
    2      -55.925672    -55.226238
    3      -55.908595    -55.208215
    4      -55.887659    -55.186880
    5      -55.870176    -55.168805
    6      -55.848990    -55.147199
    7        2.195986      2.221035
    8        3.676826      3.851250
    9        4.793281      5.197989
   10        5.359347      5.857351
   11        5.392955      6.020355
   12        5.773377      6.407708
   13        6.049409      6.620694
   14        6.156207      6.777033
   15        6.497020      7.185907
   16        6.985880      7.695728
   17        7.401302      7.904023
   18        8.821954      9.164234
   19       20.473324     20.610940
   20       23.035956     23.159366
   21       23.502274     23.613029
   22       25.668546     25.713939
   23       26.656290     26.786444
   24       27.602430     27.611115
 
  0.4736842E+00  0.1052632E+00  0.3742002E-15  0.3499052E-02
    1      -55.953364    -55.254662
    2      -55.940483    -55.241450
    3      -55.895553    -55.194835
    4      -55.882706    -55.181657
    5      -55.874230    -55.173105
    6      -55.861088    -55.159619
    7        2.795211      2.855571
    8        3.305537      3.417826
    9        5.019211      5.444152
   10        5.218839      5.672654
   11        5.488378      6.116197
   12        5.615417      6.245457
   13        6.034844      6.632300
   14        6.078440      6.689942
   15        6.662876      7.358624
   16        6.827342      7.530141
   17        7.682451      8.150156
   18        8.139970      8.552011
   19       21.428378     21.560950
   20       22.438382     22.561842
   21       24.177699     24.306307
   22       25.387550     25.518507
   23       26.205062     26.237287
   24       26.847274     26.867089
 
  0.1578947E+00  0.1578947E+00  0.3742002E-15  0.1749526E-02
    1      -55.988279    -55.290183
    2      -55.955178    -55.256029
    3      -55.937252    -55.237700
    4      -55.860269    -55.158873
    5      -55.825645    -55.123144
    6      -55.808028    -55.105137
    7       -0.177128     -0.194262
    8        3.870283      4.222214
    9        3.920366      4.257456
   10        5.241888      5.878097
   11        5.421601      6.046482
   12        5.910040      6.576755
   13        6.633346      7.224673
   14        6.702849      7.308776
   15        6.854458      7.418721
   16        6.894890      7.523829
   17        7.542376      8.280360
   18       14.744775     14.847353
   19       15.866557     16.004052
   20       19.189186     19.262894
   21       24.365954     24.458626
   22       27.273771     27.319103
   23       28.241767     28.281948
   24       30.837088     30.988116
 
  0.2105263E+00  0.1578947E+00  0.3742002E-15  0.3499052E-02
    1      -55.990904    -55.292934
    2      -55.948045    -55.248710
    3      -55.924582    -55.224736
    4      -55.876777    -55.175870
    5      -55.832218    -55.129875
    6      -55.809563    -55.106714
    7        0.194703      0.180441
    8        3.945908      4.292780
    9        4.062692      4.402972
   10        5.185280      5.817130
   11        5.404721      6.013805
   12        6.056776      6.728796
   13        6.393613      7.055796
   14        6.639049      7.163691
   15        6.674743      7.325927
   16        6.926803      7.452897
   17        7.536900      8.274325
   18       13.648193     13.780732
   19       16.062024     16.210719
   20       19.774637     19.859172
   21       24.556250     24.640721
   22       26.872110     26.933684
   23       28.149843     28.189405
   24       31.241416     31.186902
 
  0.2631579E+00  0.1578947E+00  0.3742002E-15  0.3499052E-02
    1      -55.991940    -55.294075
    2      -55.939514    -55.239951
    3      -55.911896    -55.211737
    4      -55.893869    -55.193475
    5      -55.840273    -55.138132
    6      -55.813077    -55.110335
    7        0.654984      0.645955
    8        4.001109      4.333301
    9        4.233461      4.581345
   10        5.149575      5.777399
   11        5.393571      5.981165
   12        6.154843      6.805029
   13        6.212199      6.889948
   14        6.503036      7.063849
   15        6.535422      7.137975
   16        6.991397      7.519895
   17        7.492168      8.226866
   18       12.329815     12.498608
   19       16.633325     16.789301
   20       20.495715     20.591266
   21       24.776401     24.850610
   22       25.547613     25.628184
   23       28.787740     28.828035
   24       30.325438     30.284065
 
  0.3157895E+00  0.1578947E+00  0.3742002E-15  0.3499052E-02
    1      -55.990356    -55.292514
    2      -55.929497    -55.229669
    3      -55.911048    -55.211175
    4      -55.898794    -55.198305
    5      -55.849420    -55.147512
    6      -55.819009    -55.116438
    7        1.186900      1.187318
    8        4.002641      4.308548
    9        4.424462      4.782889
   10        5.138279      5.762685
   11        5.385485      5.943223
   12        5.928216      6.568260
   13        6.365819      6.956712
   14        6.374318      6.987670
   15        6.419227      7.058216
   16        7.077174      7.604705
   17        7.413609      8.143913
   18       11.070554     11.282779
   19       17.329879     17.490461
   20       21.336529     21.442294
   21       24.282920     24.380958
   22       25.048388     25.110504
   23       29.345475     29.348249
   24       29.377615     29.385567
 
  0.3684211E+00  0.1578947E+00  0.3742002E-15  0.3499052E-02
    1      -55.986463    -55.288586
    2      -55.927993    -55.228616
    3      -55.918706    -55.218587
    4      -55.885914    -55.185099
    5      -55.859923    -55.158280
    6      -55.826999    -55.124647
    7        1.765034      1.782233
    8        3.913444      4.178802
    9        4.627816      4.999458
   10        5.154782      5.776669
   11        5.366049      5.883891
   12        5.722294      6.354320
   13        6.278347      6.869591
   14        6.315665      6.890208
   15        6.540663      7.231104
   16        7.195522      7.715175
   17        7.306531      8.031225
   18        9.936880     10.203463
   19       18.113028     18.274243
   20       22.282626     22.397130
   21       23.083814     23.197871
   22       25.387579     25.436229
   23       28.209210     28.334233
   24       28.473973     28.455943
 
  0.4210526E+00  0.1578947E+00  0.3742002E-15  0.3499052E-02
    1      -55.979649    -55.281645
    2      -55.943892    -55.244965