Automatically generated mesh
     220
Reciprocal lattice
    0.00000000000000    0.00000000000000    0.00000000000000             1
    0.05263157894737    0.00000000000000    0.00000000000000             6
    0.10526315789474    0.00000000000000    0.00000000000000             6
    0.15789473684211    0.00000000000000    0.00000000000000             6
    0.21052631578947    0.00000000000000    0.00000000000000             6
    0.26315789473684    0.00000000000000    0.00000000000000             6
    0.31578947368421    0.00000000000000    0.00000000000000             6
    0.36842105263158    0.00000000000000    0.00000000000000             6
    0.42105263157895    0.00000000000000    0.00000000000000             6
    0.47368421052632    0.00000000000000    0.00000000000000             6
    0.05263157894737    0.05263157894737    0.00000000000000            12
    0.10526315789474    0.05263157894737    0.00000000000000            24
    0.15789473684211    0.05263157894737    0.00000000000000            24
    0.21052631578947    0.05263157894737    0.00000000000000            24
    0.26315789473684    0.05263157894737    0.00000000000000            24
    0.31578947368421    0.05263157894737    0.00000000000000            24
    0.36842105263158    0.05263157894737    0.00000000000000            24
    0.42105263157895    0.05263157894737    0.00000000000000            24
    0.47368421052632    0.05263157894737    0.00000000000000            24
    0.10526315789474    0.10526315789474    0.00000000000000            12
    0.15789473684211    0.10526315789474    0.00000000000000            24
    0.21052631578947    0.10526315789474    0.00000000000000            24
    0.26315789473684    0.10526315789474    0.00000000000000            24
    0.31578947368421    0.10526315789474    0.00000000000000            24
    0.36842105263158    0.10526315789474    0.00000000000000            24
    0.42105263157895    0.10526315789474    0.00000000000000            24
    0.47368421052632    0.10526315789474    0.00000000000000            24
    0.15789473684211    0.15789473684211    0.00000000000000            12
    0.21052631578947    0.15789473684211    0.00000000000000            24
    0.26315789473684    0.15789473684211    0.00000000000000            24
    0.31578947368421    0.15789473684211    0.00000000000000            24
    0.36842105263158    0.15789473684211    0.00000000000000            24
    0.42105263157895    0.15789473684211    0.00000000000000            24
    0.47368421052632    0.15789473684211    0.00000000000000            24
    0.21052631578947    0.21052631578947    0.00000000000000            12
    0.26315789473684    0.21052631578947    0.00000000000000            24
    0.31578947368421    0.21052631578947    0.00000000000000            24
    0.36842105263158    0.21052631578947    0.00000000000000            24
    0.42105263157895    0.21052631578947    0.00000000000000            24
    0.47368421052632    0.21052631578947    0.00000000000000            24
    0.26315789473684    0.26315789473684    0.00000000000000            12
    0.31578947368421    0.26315789473684    0.00000000000000            24
    0.36842105263158    0.26315789473684    0.00000000000000            24
    0.42105263157895    0.26315789473684    0.00000000000000            24
    0.47368421052632    0.26315789473684    0.00000000000000            24
    0.31578947368421    0.31578947368421    0.00000000000000            12
    0.36842105263158    0.31578947368421    0.00000000000000            24
    0.42105263157895    0.31578947368421    0.00000000000000            24
    0.47368421052632    0.31578947368421    0.00000000000000            24
    0.36842105263158    0.36842105263158    0.00000000000000            12
    0.42105263157895    0.36842105263158    0.00000000000000            24
    0.47368421052632    0.36842105263158    0.00000000000000            24
    0.42105263157895    0.42105263157895    0.00000000000000            12
    0.47368421052632    0.42105263157895    0.00000000000000            24
    0.47368421052632    0.47368421052632    0.00000000000000            12
    0.05263157894737    0.05263157894737    0.05263157894737             8
    0.10526315789474    0.05263157894737    0.05263157894737            24
    0.15789473684211    0.05263157894737    0.05263157894737            24
    0.21052631578947    0.05263157894737    0.05263157894737            24
    0.26315789473684    0.05263157894737    0.05263157894737            24
    0.31578947368421    0.05263157894737    0.05263157894737            24
    0.36842105263158    0.05263157894737    0.05263157894737            24
    0.42105263157895    0.05263157894737    0.05263157894737            24
    0.47368421052632    0.05263157894737    0.05263157894737            24
    0.10526315789474    0.10526315789474    0.05263157894737            24
    0.15789473684211    0.10526315789474    0.05263157894737            48
    0.21052631578947    0.10526315789474    0.05263157894737            48
    0.26315789473684    0.10526315789474    0.05263157894737            48
    0.31578947368421    0.10526315789474    0.05263157894737            48
    0.36842105263158    0.10526315789474    0.05263157894737            48
    0.42105263157895    0.10526315789474    0.05263157894737            48
    0.47368421052632    0.10526315789474    0.05263157894737            48
    0.15789473684211    0.15789473684211    0.05263157894737            24
    0.21052631578947    0.15789473684211    0.05263157894737            48
    0.26315789473684    0.15789473684211    0.05263157894737            48
    0.31578947368421    0.15789473684211    0.05263157894737            48
    0.36842105263158    0.15789473684211    0.05263157894737            48
    0.42105263157895    0.15789473684211    0.05263157894737            48
    0.47368421052632    0.15789473684211    0.05263157894737            48
    0.21052631578947    0.21052631578947    0.05263157894737            24
    0.26315789473684    0.21052631578947    0.05263157894737            48
    0.31578947368421    0.21052631578947    0.05263157894737            48
    0.36842105263158    0.21052631578947    0.05263157894737            48
    0.42105263157895    0.21052631578947    0.05263157894737            48
    0.47368421052632    0.21052631578947    0.05263157894737            48
    0.26315789473684    0.26315789473684    0.05263157894737            24
    0.31578947368421    0.26315789473684    0.05263157894737            48
    0.36842105263158    0.26315789473684    0.05263157894737            48
    0.42105263157895    0.26315789473684    0.05263157894737            48
    0.47368421052632    0.26315789473684    0.05263157894737            48
    0.31578947368421    0.31578947368421    0.05263157894737            24
    0.36842105263158    0.31578947368421    0.05263157894737            48
    0.42105263157895    0.31578947368421    0.05263157894737            48
    0.47368421052632    0.31578947368421    0.05263157894737            48
    0.36842105263158    0.36842105263158    0.05263157894737            24
    0.42105263157895    0.36842105263158    0.05263157894737            48
    0.47368421052632    0.36842105263158    0.05263157894737            48
    0.42105263157895    0.42105263157895    0.05263157894737            24
    0.47368421052632    0.42105263157895    0.05263157894737            48
    0.47368421052632    0.47368421052632    0.05263157894737            24
    0.10526315789474    0.10526315789474    0.10526315789474             8
    0.15789473684211    0.10526315789474    0.10526315789474            24
    0.21052631578947    0.10526315789474    0.10526315789474            24
    0.26315789473684    0.10526315789474    0.10526315789474            24
    0.31578947368421    0.10526315789474    0.10526315789474            24
    0.36842105263158    0.10526315789474    0.10526315789474            24
    0.42105263157895    0.10526315789474    0.10526315789474            24
    0.47368421052632    0.10526315789474    0.10526315789474            24
    0.15789473684211    0.15789473684211    0.10526315789474            24
    0.21052631578947    0.15789473684211    0.10526315789474            48
    0.26315789473684    0.15789473684211    0.10526315789474            48
    0.31578947368421    0.15789473684211    0.10526315789474            48
    0.36842105263158    0.15789473684211    0.10526315789474            48
    0.42105263157895    0.15789473684211    0.10526315789474            48
    0.47368421052632    0.15789473684211    0.10526315789474            48
    0.21052631578947    0.21052631578947    0.10526315789474            24
    0.26315789473684    0.21052631578947    0.10526315789474            48
    0.31578947368421    0.21052631578947    0.10526315789474            48
    0.36842105263158    0.21052631578947    0.10526315789474            48
    0.42105263157895    0.21052631578947    0.10526315789474            48
    0.47368421052632    0.21052631578947    0.10526315789474            48
    0.26315789473684    0.26315789473684    0.10526315789474            24
    0.31578947368421    0.26315789473684    0.10526315789474            48
    0.36842105263158    0.26315789473684    0.10526315789474            48
    0.42105263157895    0.26315789473684    0.10526315789474            48
    0.47368421052632    0.26315789473684    0.10526315789474            48
    0.31578947368421    0.31578947368421    0.10526315789474            24
    0.36842105263158    0.31578947368421    0.10526315789474            48
    0.42105263157895    0.31578947368421    0.10526315789474            48
    0.47368421052632    0.31578947368421    0.10526315789474            48
    0.36842105263158    0.36842105263158    0.10526315789474            24
    0.42105263157895    0.36842105263158    0.10526315789474            48
    0.47368421052632    0.36842105263158    0.10526315789474            48
    0.42105263157895    0.42105263157895    0.10526315789474            24
    0.47368421052632    0.42105263157895    0.10526315789474            48
    0.47368421052632    0.47368421052632    0.10526315789474            24
    0.15789473684211    0.15789473684211    0.15789473684211             8
    0.21052631578947    0.15789473684211    0.15789473684211            24
    0.26315789473684    0.15789473684211    0.15789473684211            24
    0.31578947368421    0.15789473684211    0.15789473684211            24
    0.36842105263158    0.15789473684211    0.15789473684211            24
    0.42105263157895    0.15789473684211    0.15789473684211            24
    0.47368421052632    0.15789473684211    0.15789473684211            24
    0.21052631578947    0.21052631578947    0.15789473684211            24
    0.26315789473684    0.21052631578947    0.15789473684211            48
    0.31578947368421    0.21052631578947    0.15789473684211            48
    0.36842105263158    0.21052631578947    0.15789473684211            48
    0.42105263157895    0.21052631578947    0.15789473684211            48
    0.47368421052632    0.21052631578947    0.15789473684211            48
    0.26315789473684    0.26315789473684    0.15789473684211            24
    0.31578947368421    0.26315789473684    0.15789473684211            48
    0.36842105263158    0.26315789473684    0.15789473684211            48
    0.42105263157895    0.26315789473684    0.15789473684211            48
    0.47368421052632    0.26315789473684    0.15789473684211            48
    0.31578947368421    0.31578947368421    0.15789473684211            24
    0.36842105263158    0.31578947368421    0.15789473684211            48
    0.42105263157895    0.31578947368421    0.15789473684211            48
    0.47368421052632    0.31578947368421    0.15789473684211            48
    0.36842105263158    0.36842105263158    0.15789473684211            24
    0.42105263157895    0.36842105263158    0.15789473684211            48
    0.47368421052632    0.36842105263158    0.15789473684211            48
    0.42105263157895    0.42105263157895    0.15789473684211            24
    0.47368421052632    0.42105263157895    0.15789473684211            48
    0.47368421052632    0.47368421052632    0.15789473684211            24
    0.21052631578947    0.21052631578947    0.21052631578947             8
    0.26315789473684    0.21052631578947    0.21052631578947            24
    0.31578947368421    0.21052631578947    0.21052631578947            24
    0.36842105263158    0.21052631578947    0.21052631578947            24
    0.42105263157895    0.21052631578947    0.21052631578947            24
    0.47368421052632    0.21052631578947    0.21052631578947            24
    0.26315789473684    0.26315789473684    0.21052631578947            24
    0.31578947368421    0.26315789473684    0.21052631578947            48
    0.36842105263158    0.26315789473684    0.21052631578947            48
    0.42105263157895    0.26315789473684    0.21052631578947            48
    0.47368421052632    0.26315789473684    0.21052631578947            48
    0.31578947368421    0.31578947368421    0.21052631578947            24
    0.36842105263158    0.31578947368421    0.21052631578947            48
    0.42105263157895    0.31578947368421    0.21052631578947            48
    0.47368421052632    0.31578947368421    0.21052631578947            48
    0.36842105263158    0.36842105263158    0.21052631578947            24
    0.42105263157895    0.36842105263158    0.21052631578947            48
    0.47368421052632    0.36842105263158    0.21052631578947            48
    0.42105263157895    0.42105263157895    0.21052631578947            24
    0.47368421052632    0.42105263157895    0.21052631578947            48
    0.47368421052632    0.47368421052632    0.21052631578947            24
    0.26315789473684    0.26315789473684    0.26315789473684             8
    0.31578947368421    0.26315789473684    0.26315789473684            24
    0.36842105263158    0.26315789473684    0.26315789473684            24
    0.42105263157895    0.26315789473684    0.26315789473684            24
    0.47368421052632    0.26315789473684    0.26315789473684            24
    0.31578947368421    0.31578947368421    0.26315789473684            24
    0.36842105263158    0.31578947368421    0.26315789473684            48
    0.42105263157895    0.31578947368421    0.26315789473684            48
    0.47368421052632    0.31578947368421    0.26315789473684            48
    0.36842105263158    0.36842105263158    0.26315789473684            24
    0.42105263157895    0.36842105263158    0.26315789473684            48
    0.47368421052632    0.36842105263158    0.26315789473684            48
    0.42105263157895    0.42105263157895    0.26315789473684            24
    0.47368421052632    0.42105263157895    0.26315789473684            48
    0.47368421052632    0.47368421052632    0.26315789473684            24
    0.31578947368421    0.31578947368421    0.31578947368421             8
    0.36842105263158    0.31578947368421    0.31578947368421            24
    0.42105263157895    0.31578947368421    0.31578947368421            24
    0.47368421052632    0.31578947368421    0.31578947368421            24
    0.36842105263158    0.36842105263158    0.31578947368421            24
    0.42105263157895    0.36842105263158    0.31578947368421            48
    0.47368421052632    0.36842105263158    0.31578947368421            48
    0.42105263157895    0.42105263157895    0.31578947368421            24
    0.47368421052632    0.42105263157895    0.31578947368421            48
    0.47368421052632    0.47368421052632    0.31578947368421            24
    0.36842105263158    0.36842105263158    0.36842105263158             8
    0.42105263157895    0.36842105263158    0.36842105263158            24
    0.47368421052632    0.36842105263158    0.36842105263158            24
    0.42105263157895    0.42105263157895    0.36842105263158            24
    0.47368421052632    0.42105263157895    0.36842105263158            48
    0.47368421052632    0.47368421052632    0.36842105263158            24
    0.42105263157895    0.42105263157895    0.42105263157895             8
    0.47368421052632    0.42105263157895    0.42105263157895            24
    0.47368421052632    0.47368421052632    0.42105263157895            24
    0.47368421052632    0.47368421052632    0.47368421052632             8
Tetrahedra
      3403    0.00002429897458
        12         1         2         2        11
        12         2         2        11        11
        12         2        11        11        56
        12         2         3        11        12
        12         2        11        11        12
        12        11        11        12        56
        12         3        11        12        12
        24        11        12        12        57
        24        11        12        56        57
        12         3         4        12        13
        12         3        12        12        13
        12        12        12        13        57
        12         4        12        13        13
        12        12        13        13        58
        12        12        13        57        58
        12         4         5        13        14
        12         4        13        13        14
        12        13        13        14        58
        12         5        13        14        14
        12        13        14        14        59
        12        13        14        58        59
        12         5         6        14        15
        12         5        14        14        15
        12        14        14        15        59
        12         6        14        15        15
        12        14        15        15        60
        12        14        15        59        60
        12         6         7        15        16
        12         6        15        15        16
        12        15        15        16        60
        12         7        15        16        16
        12        15        16        16        61
        12        15        16        60        61
        12         7         8        16        17
        12         7        16        16        17
        12        16        16        17        61
        12         8        16        17        17
        12        16        17        17        62
        12        16        17        61        62
        12         8         9        17        18
        12         8        17        17        18
        12        17        17        18        62
        12         9        17        18        18
        12        17        18        18        63
        12        17        18        62        63
        12         9        10        18        19
        12         9        18        18        19
        12        18        18        19        63
        12        10        18        19        19
        12        18        19        19        64
        12        18        19        63        64
         6        10        10        19        19
        12        10        19        19        19
        12        19        19        19        64
         6        19        19        64        64
        12        11        12        20        56
        12        12        20        56        57
        12        20        56        57        65
        12        12        13        21        57
        12        12        20        21        57
        12        20        21        57        65
        12        13        21        57        58
        12        21        57        58        66
        12        21        57        65        66
        12        13        14        22        58
        12        13        21        22        58
        12        21        22        58        66
        12        14        22        58        59
        12        22        58        59        67
        12        22        58        66        67
        12        14        15        23        59
        12        14        22        23        59
        12        22        23        59        67
        12        15        23        59        60
        12        23        59        60        68
        12        23        59        67        68
        12        15        16        24        60
        12        15        23        24        60
        12        23        24        60        68
        12        16        24        60        61
        12        24        60        61        69
        12        24        60        68        69
        12        16        17        25        61
        12        16        24        25        61
        12        24        25        61        69
        12        17        25        61        62
        12        25        61        62        70
        12        25        61        69        70
        12        17        18        26        62
        12        17        25        26        62
        12        25        26        62        70
        12        18        26        62        63
        12        26        62        63        71
        12        26        62        70        71
        12        18        19        27        63
        12        18        26        27        63
        12        26        27        63        71
        12        19        27        63        64
        12        27        63        64        72
        12        27        63        71        72
        12        19        19        27        64
        12        19        27        27        64
        12        27        27        64        72
        12        19        27        64        64
        12        27        64        64        72
        12        27        64        72        72
        12        18        19        26        64
        12        19        26        27        64
        12        26        27        64        72
        12        18        26        63        64
        12        26        63        64        71
        12        26        64        71        72
        12        17        18        25        63
        12        18        25        26        63
        12        25        26        63        71
        12        17        25        62        63
        12        25        62        63        70
        12        25        63        70        71
        12        16        17        24        62
        12        17        24        25        62
        12        24        25        62        70
        12        16        24        61        62
        12        24        61        62        69
        12        24        62        69        70
        12        15        16        23        61
        12        16        23        24        61
        12        23        24        61        69
        12        15        23        60        61
        12        23        60        61        68
        12        23        61        68        69
        12        14        15        22        60
        12        15        22        23        60
        12        22        23        60        68
        12        14        22        59        60
        12        22        59        60        67
        12        22        60        67        68
        12        13        14        21        59
        12        14        21        22        59
        12        21        22        59        67
        12        13        21        58        59
        12        21        58        59        66
        12        21        59        66        67
        12        12        13        20        58
        12        13        20        21        58
        12        20        21        58        66
        12        12        20        57        58
        12        20        57        58        65
        12        20        58        65        66
        12        12        12        20        57
        12        12        20        57        65
        12        12        56        57        57
        12        12        57        57        65
        12         2         3        11        56
        12         3        11        12        56
        12         3        12        56        57
        12        20        21        28        65
        12        21        28        65        66
        12        28        65        66        73
        12        21        22        29        66
        12        21        28        29        66
        12        28        29        66        73
        12        22        29        66        67
        12        29        66        67        74
        12        29        66        73        74
        12        22        23        30        67
        12        22        29        30        67
        12        29        30        67        74
        12        23        30        67        68
        12        30        67        68        75
        12        30        67        74        75
        12        23        24        31        68
        12        23        30        31        68
        12        30        31        68        75
        12        24        31        68        69
        12        31        68        69        76
        12        31        68        75        76
        12        24        25        32        69
        12        24        31        32        69
        12        31        32        69        76
        12        25        32        69        70
        12        32        69        70        77
        12        32        69        76        77
        12        25        26        33        70
        12        25        32        33        70
        12        32        33        70        77
        12        26        33        70        71
        12        33        70        71        78
        12        33        70        77        78
        12        26        27        34        71
        12        26        33        34        71
        12        33        34        71        78
        12        27        34        71        72
        12        34        71        72        79
        12        34        71        78        79
        12        27        27        34        72
        12        27        34        34        72
        12        34        34        72        79
        12        27        34        72        72
        12        34        72        72        79
        12        34        72        79        79
        12        26        27        33        72
        12        27        33        34        72
        12        33        34        72        79
        12        26        33        71        72
        12        33        71        72        78
        12        33        72        78        79
        12        25        26        32        71
        12        26        32        33        71
        12        32        33        71        78
        12        25        32        70        71
        12        32        70        71        77
        12        32        71        77        78
        12        24        25        31        70
        12        25        31        32        70
        12        31        32        70        77
        12        24        31        69        70
        12        31        69        70        76
        12        31        70        76        77
        12        23        24        30        69
        12        24        30        31        69
        12        30        31        69        76
        12        23        30        68        69
        12        30        68        69        75
        12        30        69        75        76
        12        22        23        29        68
        12        23        29        30        68
        12        29        30        68        75
        12        22        29        67        68
        12        29        67        68        74
        12        29        68        74        75
        12        21        22        28        67
        12        22        28        29        67
        12        28        29        67        74
        12        21        28        66        67
        12        28        66        67        73
        12        28        67        73        74
        12        20        21        21        66
        12        21        21        28        66
        12        21        28        66        73
        12        20        21        65        66
        12        21        65        66        66
        12        21        66        66        73
        12        12        13        20        65
        12        13        20        21        65
        12        13        21        65        66
        12        12        13        57        65
        12        13        57        58        65
        12        13        58        65        66
        12         3         4        12        57
        12         4        12        13        57
        12         4        13        57        58
        12        28        29        35        73
        12        29        35        73        74
        12        35        73        74        80
        12        29        30        36        74
        12        29        35        36        74
        12        35        36        74        80
        12        30        36        74        75
        12        36        74        75        81
        12        36        74        80        81
        12        30        31        37        75
        12        30        36        37        75