final                                   
           1
     2.791111    0.000000    0.000000
     0.000000    2.791111    0.000000
     0.000000    0.000000    2.791111
   Ni
   2
Direct configuration=     1
   0.50000000  0.50000000  0.50000000
   0.00000000  0.00000000  0.00000000
