   2   2   0   0
  0.1212856E+02  0.2894763E-09  0.2894763E-09  0.2894763E-09  0.5000000E-15
  1.000000000000000E-004
  CAR 
 unknown system                          
     34.09994241    -58.67709523  301      9.15298235      1.00000000
    -58.677  0.0000E+00  0.0000E+00  0.0000E+00  0.0000E+00
    -58.368  0.0000E+00  0.0000E+00  0.0000E+00  0.0000E+00
    -58.059  0.0000E+00  0.0000E+00  0.0000E+00  0.0000E+00
    -57.749  0.0000E+00  0.0000E+00  0.0000E+00  0.0000E+00
    -57.440  0.0000E+00  0.0000E+00  0.0000E+00  0.0000E+00
    -57.131  0.0000E+00  0.0000E+00  0.0000E+00  0.0000E+00
    -56.822  0.0000E+00  0.0000E+00  0.0000E+00  0.0000E+00
    -56.512  0.0000E+00  0.0000E+00  0.0000E+00  0.0000E+00
    -56.203 -0.1377E-33 -0.1655E-33 -0.4260E-34 -0.5119E-34
    -55.894 -0.6208E-23 -0.7220E-23 -0.1920E-23 -0.2233E-23
    -55.585 -0.2193E-14 -0.2467E-14 -0.6782E-15 -0.7629E-15
    -55.275 -0.6102E-08 -0.6639E-08 -0.1887E-08 -0.2053E-08
    -54.966 -0.1163E-03 -0.1222E-03 -0.3598E-04 -0.3780E-04
    -54.657 -0.4606E-02 -0.4475E-02 -0.1460E-02 -0.1422E-02
    -54.348  0.1421E+00  0.1429E+00  0.4247E-01  0.4276E-01
    -54.038  0.2282E-01  0.2185E-01  0.4953E-01  0.4952E-01
    -53.729 -0.1136E-02 -0.1097E-02  0.4918E-01  0.4918E-01
    -53.420 -0.4096E-06 -0.3811E-06  0.4918E-01  0.4918E-01
    -53.110 -0.8947E-12 -0.8047E-12  0.4918E-01  0.4918E-01
    -52.801  0.0000E+00  0.0000E+00  0.4918E-01  0.4918E-01
    -52.492  0.0000E+00  0.0000E+00  0.4918E-01  0.4918E-01
    -52.183  0.0000E+00  0.0000E+00  0.4918E-01  0.4918E-01
    -51.873  0.0000E+00  0.0000E+00  0.4918E-01  0.4918E-01
    -51.564  0.0000E+00  0.0000E+00  0.4918E-01  0.4918E-01
    -51.255  0.0000E+00  0.0000E+00  0.4918E-01  0.4918E-01
    -50.946  0.0000E+00  0.0000E+00  0.4918E-01  0.4918E-01
    -50.636  0.0000E+00  0.0000E+00  0.4918E-01  0.4918E-01
    -50.327  0.0000E+00  0.0000E+00  0.4918E-01  0.4918E-01
    -50.018  0.0000E+00  0.0000E+00  0.4918E-01  0.4918E-01
    -49.709  0.0000E+00  0.0000E+00  0.4918E-01  0.4918E-01
    -49.399  0.0000E+00  0.0000E+00  0.4918E-01  0.4918E-01
    -49.090  0.0000E+00  0.0000E+00  0.4918E-01  0.4918E-01
    -48.781  0.0000E+00  0.0000E+00  0.4918E-01  0.4918E-01
    -48.472  0.0000E+00  0.0000E+00  0.4918E-01  0.4918E-01
    -48.162  0.0000E+00  0.0000E+00  0.4918E-01  0.4918E-01
    -47.853  0.0000E+00  0.0000E+00  0.4918E-01  0.4918E-01
    -47.544  0.0000E+00  0.0000E+00  0.4918E-01  0.4918E-01
    -47.235  0.0000E+00  0.0000E+00  0.4918E-01  0.4918E-01
    -46.925  0.0000E+00  0.0000E+00  0.4918E-01  0.4918E-01
    -46.616  0.0000E+00  0.0000E+00  0.4918E-01  0.4918E-01
    -46.307  0.0000E+00  0.0000E+00  0.4918E-01  0.4918E-01
    -45.998  0.0000E+00  0.0000E+00  0.4918E-01  0.4918E-01
    -45.688  0.0000E+00  0.0000E+00  0.4918E-01  0.4918E-01
    -45.379  0.0000E+00  0.0000E+00  0.4918E-01  0.4918E-01
    -45.070  0.0000E+00  0.0000E+00  0.4918E-01  0.4918E-01
    -44.761  0.0000E+00  0.0000E+00  0.4918E-01  0.4918E-01
    -44.451  0.0000E+00  0.0000E+00  0.4918E-01  0.4918E-01
    -44.142  0.0000E+00  0.0000E+00  0.4918E-01  0.4918E-01
    -43.833  0.0000E+00  0.0000E+00  0.4918E-01  0.4918E-01
    -43.524  0.0000E+00  0.0000E+00  0.4918E-01  0.4918E-01
    -43.214  0.0000E+00  0.0000E+00  0.4918E-01  0.4918E-01
    -42.905  0.0000E+00  0.0000E+00  0.4918E-01  0.4918E-01
    -42.596  0.0000E+00  0.0000E+00  0.4918E-01  0.4918E-01
    -42.286  0.0000E+00  0.0000E+00  0.4918E-01  0.4918E-01
    -41.977  0.0000E+00  0.0000E+00  0.4918E-01  0.4918E-01
    -41.668  0.0000E+00  0.0000E+00  0.4918E-01  0.4918E-01
    -41.359  0.0000E+00  0.0000E+00  0.4918E-01  0.4918E-01
    -41.049  0.0000E+00  0.0000E+00  0.4918E-01  0.4918E-01
    -40.740  0.0000E+00  0.0000E+00  0.4918E-01  0.4918E-01
    -40.431  0.0000E+00  0.0000E+00  0.4918E-01  0.4918E-01
    -40.122  0.0000E+00  0.0000E+00  0.4918E-01  0.4918E-01
    -39.812  0.0000E+00  0.0000E+00  0.4918E-01  0.4918E-01
    -39.503  0.0000E+00  0.0000E+00  0.4918E-01  0.4918E-01
    -39.194  0.0000E+00  0.0000E+00  0.4918E-01  0.4918E-01
    -38.885  0.0000E+00  0.0000E+00  0.4918E-01  0.4918E-01
    -38.575  0.0000E+00  0.0000E+00  0.4918E-01  0.4918E-01
    -38.266  0.0000E+00  0.0000E+00  0.4918E-01  0.4918E-01
    -37.957  0.0000E+00  0.0000E+00  0.4918E-01  0.4918E-01
    -37.648  0.0000E+00  0.0000E+00  0.4918E-01  0.4918E-01
    -37.338  0.0000E+00  0.0000E+00  0.4918E-01  0.4918E-01
    -37.029  0.0000E+00  0.0000E+00  0.4918E-01  0.4918E-01
    -36.720  0.0000E+00  0.0000E+00  0.4918E-01  0.4918E-01
    -36.411  0.0000E+00  0.0000E+00  0.4918E-01  0.4918E-01
    -36.101  0.0000E+00  0.0000E+00  0.4918E-01  0.4918E-01
    -35.792  0.0000E+00  0.0000E+00  0.4918E-01  0.4918E-01
    -35.483  0.0000E+00  0.0000E+00  0.4918E-01  0.4918E-01
    -35.174  0.0000E+00  0.0000E+00  0.4918E-01  0.4918E-01
    -34.864  0.0000E+00  0.0000E+00  0.4918E-01  0.4918E-01
    -34.555  0.0000E+00  0.0000E+00  0.4918E-01  0.4918E-01
    -34.246  0.0000E+00  0.0000E+00  0.4918E-01  0.4918E-01
    -33.937  0.0000E+00  0.0000E+00  0.4918E-01  0.4918E-01
    -33.627  0.0000E+00  0.0000E+00  0.4918E-01  0.4918E-01
    -33.318  0.0000E+00  0.0000E+00  0.4918E-01  0.4918E-01
    -33.009  0.0000E+00  0.0000E+00  0.4918E-01  0.4918E-01
    -32.700  0.0000E+00  0.0000E+00  0.4918E-01  0.4918E-01
    -32.390  0.0000E+00  0.0000E+00  0.4918E-01  0.4918E-01
    -32.081  0.0000E+00  0.0000E+00  0.4918E-01  0.4918E-01
    -31.772  0.0000E+00  0.0000E+00  0.4918E-01  0.4918E-01
    -31.462  0.0000E+00  0.0000E+00  0.4918E-01  0.4918E-01
    -31.153  0.0000E+00  0.0000E+00  0.4918E-01  0.4918E-01
    -30.844  0.0000E+00  0.0000E+00  0.4918E-01  0.4918E-01
    -30.535  0.0000E+00  0.0000E+00  0.4918E-01  0.4918E-01
    -30.225  0.0000E+00  0.0000E+00  0.4918E-01  0.4918E-01
    -29.916  0.0000E+00  0.0000E+00  0.4918E-01  0.4918E-01
    -29.607  0.0000E+00  0.0000E+00  0.4918E-01  0.4918E-01
    -29.298  0.0000E+00  0.0000E+00  0.4918E-01  0.4918E-01
    -28.988  0.0000E+00  0.0000E+00  0.4918E-01  0.4918E-01
    -28.679  0.0000E+00  0.0000E+00  0.4918E-01  0.4918E-01
    -28.370  0.0000E+00  0.0000E+00  0.4918E-01  0.4918E-01
    -28.061  0.0000E+00  0.0000E+00  0.4918E-01  0.4918E-01
    -27.751  0.0000E+00  0.0000E+00  0.4918E-01  0.4918E-01
    -27.442  0.0000E+00  0.0000E+00  0.4918E-01  0.4918E-01
    -27.133  0.0000E+00  0.0000E+00  0.4918E-01  0.4918E-01
    -26.824  0.0000E+00  0.0000E+00  0.4918E-01  0.4918E-01
    -26.514  0.0000E+00  0.0000E+00  0.4918E-01  0.4918E-01
    -26.205  0.0000E+00  0.0000E+00  0.4918E-01  0.4918E-01
    -25.896  0.0000E+00  0.0000E+00  0.4918E-01  0.4918E-01
    -25.587  0.0000E+00  0.0000E+00  0.4918E-01  0.4918E-01
    -25.277  0.0000E+00  0.0000E+00  0.4918E-01  0.4918E-01
    -24.968  0.0000E+00  0.0000E+00  0.4918E-01  0.4918E-01
    -24.659  0.0000E+00  0.0000E+00  0.4918E-01  0.4918E-01
    -24.350  0.0000E+00  0.0000E+00  0.4918E-01  0.4918E-01
    -24.040  0.0000E+00  0.0000E+00  0.4918E-01  0.4918E-01
    -23.731  0.0000E+00  0.0000E+00  0.4918E-01  0.4918E-01
    -23.422  0.0000E+00  0.0000E+00  0.4918E-01  0.4918E-01
    -23.113  0.0000E+00  0.0000E+00  0.4918E-01  0.4918E-01
    -22.803  0.0000E+00  0.0000E+00  0.4918E-01  0.4918E-01
    -22.494  0.0000E+00  0.0000E+00  0.4918E-01  0.4918E-01
    -22.185  0.0000E+00  0.0000E+00  0.4918E-01  0.4918E-01
    -21.876  0.0000E+00  0.0000E+00  0.4918E-01  0.4918E-01
    -21.566  0.0000E+00  0.0000E+00  0.4918E-01  0.4918E-01
    -21.257  0.0000E+00  0.0000E+00  0.4918E-01  0.4918E-01
    -20.948  0.0000E+00  0.0000E+00  0.4918E-01  0.4918E-01
    -20.639  0.0000E+00  0.0000E+00  0.4918E-01  0.4918E-01
    -20.329  0.0000E+00  0.0000E+00  0.4918E-01  0.4918E-01
    -20.020  0.0000E+00  0.0000E+00  0.4918E-01  0.4918E-01
    -19.711  0.0000E+00  0.0000E+00  0.4918E-01  0.4918E-01
    -19.401  0.0000E+00  0.0000E+00  0.4918E-01  0.4918E-01
    -19.092  0.0000E+00  0.0000E+00  0.4918E-01  0.4918E-01
    -18.783  0.0000E+00  0.0000E+00  0.4918E-01  0.4918E-01
    -18.474  0.0000E+00  0.0000E+00  0.4918E-01  0.4918E-01
    -18.164  0.0000E+00  0.0000E+00  0.4918E-01  0.4918E-01
    -17.855  0.0000E+00  0.0000E+00  0.4918E-01  0.4918E-01
    -17.546  0.0000E+00  0.0000E+00  0.4918E-01  0.4918E-01
    -17.237  0.0000E+00  0.0000E+00  0.4918E-01  0.4918E-01
    -16.927  0.0000E+00  0.0000E+00  0.4918E-01  0.4918E-01
    -16.618  0.0000E+00  0.0000E+00  0.4918E-01  0.4918E-01
    -16.309  0.0000E+00  0.0000E+00  0.4918E-01  0.4918E-01
    -16.000  0.0000E+00  0.0000E+00  0.4918E-01  0.4918E-01
    -15.690  0.0000E+00  0.0000E+00  0.4918E-01  0.4918E-01
    -15.381  0.0000E+00  0.0000E+00  0.4918E-01  0.4918E-01
    -15.072  0.0000E+00  0.0000E+00  0.4918E-01  0.4918E-01
    -14.763  0.0000E+00  0.0000E+00  0.4918E-01  0.4918E-01
    -14.453  0.0000E+00  0.0000E+00  0.4918E-01  0.4918E-01
    -14.144  0.0000E+00  0.0000E+00  0.4918E-01  0.4918E-01
    -13.835  0.0000E+00  0.0000E+00  0.4918E-01  0.4918E-01
    -13.526  0.0000E+00  0.0000E+00  0.4918E-01  0.4918E-01
    -13.216  0.0000E+00  0.0000E+00  0.4918E-01  0.4918E-01
    -12.907  0.0000E+00  0.0000E+00  0.4918E-01  0.4918E-01
    -12.598  0.0000E+00  0.0000E+00  0.4918E-01  0.4918E-01
    -12.289  0.0000E+00  0.0000E+00  0.4918E-01  0.4918E-01
    -11.979  0.0000E+00  0.0000E+00  0.4918E-01  0.4918E-01
    -11.670  0.0000E+00  0.0000E+00  0.4918E-01  0.4918E-01
    -11.361  0.0000E+00  0.0000E+00  0.4918E-01  0.4918E-01
    -11.052  0.0000E+00  0.0000E+00  0.4918E-01  0.4918E-01
    -10.742  0.0000E+00  0.0000E+00  0.4918E-01  0.4918E-01
    -10.433  0.0000E+00  0.0000E+00  0.4918E-01  0.4918E-01
    -10.124  0.0000E+00  0.0000E+00  0.4918E-01  0.4918E-01
     -9.815  0.0000E+00  0.0000E+00  0.4918E-01  0.4918E-01
     -9.505  0.0000E+00  0.0000E+00  0.4918E-01  0.4918E-01
     -9.196  0.0000E+00  0.0000E+00  0.4918E-01  0.4918E-01
     -8.887  0.0000E+00  0.0000E+00  0.4918E-01  0.4918E-01
     -8.577  0.0000E+00  0.0000E+00  0.4918E-01  0.4918E-01
     -8.268  0.0000E+00  0.0000E+00  0.4918E-01  0.4918E-01
     -7.959  0.0000E+00  0.0000E+00  0.4918E-01  0.4918E-01
     -7.650  0.0000E+00  0.0000E+00  0.4918E-01  0.4918E-01
     -7.340  0.0000E+00  0.0000E+00  0.4918E-01  0.4918E-01
     -7.031  0.0000E+00  0.0000E+00  0.4918E-01  0.4918E-01
     -6.722  0.0000E+00  0.0000E+00  0.4918E-01  0.4918E-01
     -6.413  0.0000E+00  0.0000E+00  0.4918E-01  0.4918E-01
     -6.103  0.0000E+00  0.0000E+00  0.4918E-01  0.4918E-01
     -5.794  0.0000E+00  0.0000E+00  0.4918E-01  0.4918E-01
     -5.485  0.0000E+00  0.0000E+00  0.4918E-01  0.4918E-01
     -5.176  0.0000E+00  0.0000E+00  0.4918E-01  0.4918E-01
     -4.866  0.0000E+00  0.0000E+00  0.4918E-01  0.4918E-01
     -4.557  0.0000E+00  0.0000E+00  0.4918E-01  0.4918E-01
     -4.248  0.0000E+00  0.0000E+00  0.4918E-01  0.4918E-01
     -3.939  0.0000E+00  0.0000E+00  0.4918E-01  0.4918E-01
     -3.629 -0.2558E-37 -0.2575E-37  0.4918E-01  0.4918E-01
     -3.320 -0.1023E-26 -0.1029E-26  0.4918E-01  0.4918E-01
     -3.011 -0.3467E-18 -0.3483E-18  0.4918E-01  0.4918E-01
     -2.702 -0.1088E-11 -0.1091E-11  0.4918E-01  0.4918E-01
     -2.392 -0.3189E-07 -0.3196E-07  0.4918E-01  0.4918E-01
     -2.083 -0.6793E-05 -0.6797E-05  0.4918E-01  0.4918E-01
     -1.774  0.1249E-03  0.1250E-03  0.4922E-01  0.4922E-01
     -1.465  0.6689E-03  0.6690E-03  0.4942E-01  0.4942E-01
     -1.155  0.1017E-02  0.1017E-02  0.4974E-01  0.4974E-01
     -0.846  0.1322E-02  0.1322E-02  0.5015E-01  0.5015E-01
     -0.537  0.1484E-02  0.1485E-02  0.5061E-01  0.5061E-01
     -0.228  0.1685E-02  0.1685E-02  0.5113E-01  0.5113E-01
      0.082  0.1932E-02  0.1932E-02  0.5172E-01  0.5172E-01
      0.391  0.2086E-02  0.2085E-02  0.5237E-01  0.5237E-01
      0.700  0.2377E-02  0.2377E-02  0.5310E-01  0.5310E-01
      1.009  0.2391E-02  0.2391E-02  0.5384E-01  0.5384E-01
      1.319  0.2709E-02  0.2709E-02  0.5468E-01  0.5468E-01
      1.628  0.2942E-02  0.2943E-02  0.5559E-01  0.5559E-01
      1.937  0.2918E-02  0.2918E-02  0.5649E-01  0.5649E-01
      2.246  0.3707E-02  0.3707E-02  0.5764E-01  0.5764E-01
      2.556  0.3485E-02  0.3485E-02  0.5872E-01  0.5872E-01
      2.865  0.4052E-02  0.4053E-02  0.5997E-01  0.5997E-01
      3.174  0.4610E-02  0.4611E-02  0.6140E-01  0.6140E-01
      3.484  0.4595E-02  0.4595E-02  0.6282E-01  0.6282E-01
      3.793  0.5563E-02  0.5564E-02  0.6454E-01  0.6454E-01
      4.102  0.5728E-02  0.5728E-02  0.6631E-01  0.6631E-01
      4.411  0.5014E-02  0.5015E-02  0.6786E-01  0.6786E-01
      4.721  0.5554E-02  0.5555E-02  0.6958E-01  0.6958E-01
      5.030  0.6226E-02  0.6228E-02  0.7150E-01  0.7151E-01
      5.339  0.1256E-01  0.1257E-01  0.7539E-01  0.7539E-01
      5.648  0.1435E-01  0.1435E-01  0.7983E-01  0.7983E-01
      5.958  0.1432E-01  0.1433E-01  0.8425E-01  0.8426E-01
      6.267  0.2585E-01  0.2586E-01  0.9225E-01  0.9226E-01
      6.576  0.1983E-01  0.1982E-01  0.9838E-01  0.9839E-01
      6.885  0.2384E-01  0.2386E-01  0.1058E+00  0.1058E+00
      7.195  0.4462E-01  0.4462E-01  0.1196E+00  0.1196E+00
      7.504  0.5486E-01  0.5485E-01  0.1365E+00  0.1365E+00
      7.813  0.2438E-01  0.2436E-01  0.1441E+00  0.1441E+00
      8.122  0.5668E-02  0.5665E-02  0.1458E+00  0.1458E+00
      8.432  0.5434E-02  0.5444E-02  0.1475E+00  0.1475E+00
      8.741  0.1482E-01  0.1483E-01  0.1521E+00  0.1521E+00
      9.050  0.9490E-02  0.9479E-02  0.1550E+00  0.1550E+00
      9.359  0.6380E-02  0.6377E-02  0.1570E+00  0.1570E+00
      9.669  0.5480E-02  0.5477E-02  0.1587E+00  0.1587E+00
      9.978  0.3881E-02  0.3881E-02  0.1599E+00  0.1599E+00
     10.287  0.3859E-02  0.3858E-02  0.1611E+00  0.1611E+00
     10.596  0.2302E-02  0.2301E-02  0.1618E+00  0.1618E+00
     10.906  0.2992E-02  0.2995E-02  0.1627E+00  0.1627E+00
     11.215  0.4524E-02  0.4525E-02  0.1641E+00  0.1641E+00
     11.524  0.5533E-02  0.5532E-02  0.1658E+00  0.1658E+00
     11.833  0.8301E-02  0.8299E-02  0.1684E+00  0.1684E+00
     12.143  0.7337E-02  0.7335E-02  0.1707E+00  0.1707E+00
     12.452  0.6373E-02  0.6371E-02  0.1726E+00  0.1726E+00
     12.761  0.6640E-02  0.6639E-02  0.1747E+00  0.1747E+00
     13.070  0.5740E-02  0.5740E-02  0.1765E+00  0.1765E+00
     13.380  0.6865E-02  0.6865E-02  0.1786E+00  0.1786E+00
     13.689  0.5519E-02  0.5520E-02  0.1803E+00  0.1803E+00
     13.998  0.6589E-02  0.6590E-02  0.1823E+00  0.1823E+00
     14.308  0.7243E-02  0.7243E-02  0.1846E+00  0.1846E+00
     14.617  0.6484E-02  0.6484E-02  0.1866E+00  0.1866E+00
     14.926  0.7901E-02  0.7902E-02  0.1890E+00  0.1890E+00
     15.235  0.6761E-02  0.6762E-02  0.1911E+00  0.1911E+00
     15.545  0.7464E-02  0.7463E-02  0.1934E+00  0.1934E+00
     15.854  0.6689E-02  0.6691E-02  0.1955E+00  0.1955E+00
     16.163  0.6814E-02  0.6812E-02  0.1976E+00  0.1976E+00
     16.472  0.6375E-02  0.6376E-02  0.1996E+00  0.1996E+00
     16.782  0.6705E-02  0.6705E-02  0.2016E+00  0.2016E+00
     17.091  0.5997E-02  0.5996E-02  0.2035E+00  0.2035E+00
     17.400  0.5494E-02  0.5496E-02  0.2052E+00  0.2052E+00
     17.709  0.7793E-02  0.7793E-02  0.2076E+00  0.2076E+00
     18.019  0.5364E-02  0.5363E-02  0.2093E+00  0.2093E+00
     18.328  0.8984E-02  0.8990E-02  0.2120E+00  0.2120E+00
     18.637  0.7948E-02  0.7947E-02  0.2145E+00  0.2145E+00
     18.946  0.6957E-02  0.6954E-02  0.2166E+00  0.2166E+00
     19.256  0.6758E-02  0.6756E-02  0.2187E+00  0.2187E+00
     19.565  0.5618E-02  0.5617E-02  0.2205E+00  0.2205E+00
     19.874  0.5354E-02  0.5356E-02  0.2221E+00  0.2221E+00
     20.183  0.5228E-02  0.5226E-02  0.2237E+00  0.2237E+00
     20.493  0.6733E-02  0.6732E-02  0.2258E+00  0.2258E+00
     20.802  0.6197E-02  0.6196E-02  0.2277E+00  0.2277E+00
     21.111  0.6817E-02  0.6817E-02  0.2299E+00  0.2299E+00
     21.420  0.7441E-02  0.7442E-02  0.2322E+00  0.2322E+00
     21.730  0.6540E-02  0.6540E-02  0.2342E+00  0.2342E+00
     22.039  0.6786E-02  0.6785E-02  0.2363E+00  0.2363E+00
     22.348  0.7113E-02  0.7117E-02  0.2385E+00  0.2385E+00
     22.657  0.8185E-02  0.8177E-02  0.2410E+00  0.2410E+00
     22.967  0.7718E-02  0.7719E-02  0.2434E+00  0.2434E+00
     23.276  0.7378E-02  0.7379E-02  0.2457E+00  0.2457E+00
     23.585  0.6018E-02  0.6013E-02  0.2475E+00  0.2475E+00
     23.894  0.7221E-02  0.7222E-02  0.2498E+00  0.2498E+00
     24.204  0.5373E-02  0.5274E-02  0.2514E+00  0.2514E+00
     24.513  0.7384E-02  0.7288E-02  0.2537E+00  0.2537E+00
     24.822  0.7169E-02  0.7264E-02  0.2559E+00  0.2559E+00
     25.131  0.8686E-02  0.8711E-02  0.2586E+00  0.2586E+00
     25.441  0.4757E-02  0.4776E-02  0.2601E+00  0.2601E+00
     25.750  0.3757E-02  0.3677E-02  0.2612E+00  0.2612E+00
     26.059  0.1618E-02  0.1770E-02  0.2618E+00  0.2618E+00
     26.369  0.8995E-03  0.9168E-03  0.2620E+00  0.2620E+00
     26.678  0.1455E-03  0.1213E-03  0.2621E+00  0.2621E+00
     26.987  0.5359E-04  0.4750E-04  0.2621E+00  0.2621E+00
     27.296  0.2111E-03  0.2463E-03  0.2622E+00  0.2622E+00
     27.606  0.2072E-03  0.1749E-03  0.2622E+00  0.2622E+00
     27.915 -0.4973E-05 -0.3299E-05  0.2622E+00  0.2622E+00
     28.224  0.3875E-04  0.3885E-04  0.2622E+00  0.2622E+00
     28.533  0.7977E-04  0.7798E-04  0.2623E+00  0.2623E+00
     28.843  0.8108E-04  0.8281E-04  0.2623E+00  0.2623E+00
     29.152  0.4495E-05  0.4641E-05  0.2623E+00  0.2623E+00
     29.461  0.3985E-04  0.3965E-04  0.2623E+00  0.2623E+00
     29.770 -0.7322E-06 -0.7369E-06  0.2623E+00  0.2623E+00
     30.080  0.7130E-05  0.7125E-05  0.2623E+00  0.2623E+00
     30.389 -0.1729E-06 -0.1749E-06  0.2623E+00  0.2623E+00
     30.698 -0.7808E-08 -0.7732E-08  0.2623E+00  0.2623E+00
     31.007 -0.5074E-12 -0.4989E-12  0.2623E+00  0.2623E+00
     31.317 -0.2214E-18 -0.2162E-18  0.2623E+00  0.2623E+00
     31.626  0.0000E+00  0.0000E+00  0.2623E+00  0.2623E+00
     31.935  0.0000E+00  0.0000E+00  0.2623E+00  0.2623E+00
     32.244  0.0000E+00  0.0000E+00  0.2623E+00  0.2623E+00
     32.554  0.0000E+00  0.0000E+00  0.2623E+00  0.2623E+00
     32.863  0.0000E+00  0.0000E+00  0.2623E+00  0.2623E+00
     33.172  0.0000E+00  0.0000E+00  0.2623E+00  0.2623E+00
     33.481  0.0000E+00  0.0000E+00  0.2623E+00  0.2623E+00
     33.791  0.0000E+00  0.0000E+00  0.2623E+00  0.2623E+00
     34.100  0.0000E+00  0.0000E+00  0.2623E+00  0.2623E+00
