    2    2   61    2
  0.1212856E+02  0.2894763E-09  0.2894763E-09  0.2894763E-09  0.5000000E-15
  1.000000000000000E-004
  CAR 
 unknown system                          
     19    220     16
 
  0.3742002E-15  0.3742002E-15  0.3742002E-15  0.1457938E-03
    1      -54.436838    -54.438952
    2      -54.436838    -54.438952
    3      -54.436838    -54.438952
    4       -1.888620     -1.888697
    5        5.997686      5.997046
    6        5.997686      5.997046
    7        7.655751      7.655584
    8        7.655751      7.655584
    9        7.655751      7.655584
   10       14.586082     14.586105
   11       14.586082     14.586105
   12       14.586082     14.586105
   13       17.230632     17.230145
   14       17.230632     17.230145
   15       22.648705     22.649349
   16       29.882804     29.882376
 
  0.5263158E-01  0.3742002E-15  0.3742002E-15  0.8747631E-03
    1      -54.437413    -54.439526
    2      -54.436787    -54.438900
    3      -54.436787    -54.438900
    4       -1.838052     -1.838129
    5        5.994071      5.993435
    6        6.009572      6.008932
    7        7.633561      7.633393
    8        7.633561      7.633394
    9        7.658087      7.657920
   10       13.997698     13.997657
   11       14.653259     14.653282
   12       14.653259     14.653281
   13       17.234255     17.233755
   14       17.767598     17.767181
   15       22.826988     22.827624
   16       29.237079     29.235689
 
  0.1052632E+00  0.3742002E-15  0.3742002E-15  0.8747631E-03
    1      -54.439223    -54.441335
    2      -54.436723    -54.438837
    3      -54.436723    -54.438837
    4       -1.686681     -1.686757
    5        5.976253      5.975630
    6        6.044144      6.043505
    7        7.570690      7.570522
    8        7.570690      7.570522
    9        7.664830      7.664664
   10       12.879064     12.878966
   11       14.851214     14.851233
   12       14.851214     14.851233
   13       17.245028     17.244493
   14       18.708569     18.708239
   15       23.389519     23.390117
   16       28.024395     28.024178
 
  0.1578947E+00  0.3742002E-15  0.3742002E-15  0.8747631E-03
    1      -54.441300    -54.443412
    2      -54.436464    -54.438578
    3      -54.436464    -54.438578
    4       -1.435722     -1.435797
    5        5.921709      5.921118
    6        6.098283      6.097647
    7        7.477372      7.477202
    8        7.477372      7.477202
    9        7.675270      7.675106
   10       11.709343     11.709196
   11       15.170522     15.170535
   12       15.170522     15.170535
   13       17.262620     17.262025
   14       19.556294     19.556079
   15       24.368193     24.368707
   16       26.731470     26.731270
 
  0.2105263E+00  0.3742002E-15  0.3742002E-15  0.8747631E-03
    1      -54.444749    -54.446861
    2      -54.436228    -54.438342
    3      -54.436228    -54.438342
    4       -1.087212     -1.087286
    5        5.786974      5.786440
    6        6.166837      6.166204
    7        7.366723      7.366551
    8        7.366723      7.366551
    9        7.688300      7.688137
   10       10.640895     10.640680
   11       15.598727     15.598729
   12       15.598727     15.598729
   13       17.286284     17.285609
   14       20.238238     20.238168
   15       25.460698     25.460583
   16       25.466821     25.553482
 
  0.2631579E+00  0.3742002E-15  0.3742002E-15  0.8747631E-03
    1      -54.448274    -54.450386
    2      -54.436084    -54.438198
    3      -54.436084    -54.438198
    4       -0.644123     -0.644196
    5        5.509442      5.509002
    6        6.242903      6.242275
    7        7.252468      7.252293
    8        7.252468      7.252293
    9        7.702504      7.702342
   10        9.767957      9.767641
   11       16.123174     16.123158
   12       16.123174     16.123158
   13       17.314596     17.313824
   14       20.820244     20.820306
   15       24.240959     24.240911
   16       24.240959     24.240913
 
  0.3157895E+00  0.3742002E-15  0.3742002E-15  0.8747631E-03
    1      -54.451462    -54.453573
    2      -54.435469    -54.437582
    3      -54.435469    -54.437582
    4       -0.110676     -0.110748
    5        5.034587      5.034260
    6        6.318690      6.318065
    7        7.146976      7.146799
    8        7.146976      7.146799
    9        7.716443      7.716283
   10        9.154027      9.153589
   11       16.732507     16.732461
   12       16.732507     16.732461
   13       17.345178     17.344297
   14       21.375442     21.375631
   15       23.083101     23.083121
   16       23.083101     23.083121
 
  0.3684211E+00  0.3742002E-15  0.3742002E-15  0.8747631E-03
    1      -54.454315    -54.456425
    2      -54.435108    -54.437222
    3      -54.435108    -54.437221
    4        0.507348      0.507277
    5        4.371375      4.371147
    6        6.385387      6.384767
    7        7.059655      7.059476
    8        7.059655      7.059476
    9        7.728492      7.728334
   10        8.792188      8.791645
   11       17.374431     17.373445
   12       17.416275     17.416178
   13       17.416275     17.416178
   14       21.948798     21.949121
   15       21.993139     21.993239
   16       21.993139     21.993239
 
  0.4210526E+00  0.3742002E-15  0.3742002E-15  0.8747631E-03
    1      -54.456696    -54.458806
    2      -54.435024    -54.437137
    3      -54.435024    -54.437137
    4        1.201340      1.201269
    5        3.592327      3.592161
    6        6.435101      6.434484
    7        6.997488      6.997308
    8        6.997488      6.997308
    9        7.737322      7.737164
   10        8.611541      8.610932
   11       17.397856     17.396785
   12       18.160723     18.160518
   13       18.160723     18.160518
   14       20.980505     20.980732
   15       20.980505     20.980732
   16       22.556454     22.557134
 
  0.4736842E+00  0.3742002E-15  0.3742002E-15  0.8747631E-03
    1      -54.457848    -54.459957
    2      -54.434926    -54.437039
    3      -54.434926    -54.437039
    4        1.955208      1.955152
    5        2.778935      2.778782
    6        6.461689      6.461074
    7        6.965326      6.965145
    8        6.965326      6.965145
    9        7.742014      7.741858
   10        8.540174      8.539534
   11       17.411001     17.409880
   12       18.905031     18.904472
   13       18.905031     18.904472
   14       20.102933     20.103524
   15       20.102933     20.103524
   16       23.139882     23.142155
 
  0.5263158E-01  0.5263158E-01  0.3742002E-15  0.1749526E-02
    1      -54.437450    -54.439564
    2      -54.437358    -54.439471
    3      -54.436740    -54.438854
    4       -1.787536     -1.787613
    5        5.999179      5.998545
    6        6.013390      6.012752
    7        7.610490      7.610322
    8        7.630187      7.630021
    9        7.641818      7.641650
   10       13.940191     13.940120
   11       14.188509     14.188499
   12       14.720161     14.720183
   13       17.511045     17.510581
   14       18.041855     18.041452
   15       22.995229     22.995861
   16       28.554919     28.563964
 
  0.1052632E+00  0.5263158E-01  0.3742002E-15  0.3499052E-02
    1      -54.439010    -54.441123
    2      -54.437242    -54.439355
    3      -54.436671    -54.438785
    4       -1.636409     -1.636485
    5        5.986537      5.985916
    6        6.044808      6.044173
    7        7.545469      7.545300
    8        7.571818      7.571650
    9        7.644708      7.644541
   10       12.917830     12.917725
   11       14.275472     14.275437
   12       14.917345     14.917365
   13       17.621801     17.621316
   14       18.924039     18.923697
   15       23.528792     23.529394
   16       27.326911     27.333241
 
  0.1578947E+00  0.5263158E-01  0.3742002E-15  0.3499052E-02
    1      -54.441244    -54.443356
    2      -54.437033    -54.439146
    3      -54.436413    -54.438527
    4       -1.385841     -1.385916
    5        5.935267      5.934676
    6        6.098765      6.098133
    7        7.449373      7.449200
    8        7.479379      7.479209
    9        7.655186      7.655020
   10       11.753610     11.753461
   11       14.557814     14.557763
   12       15.235517     15.235531
   13       17.677152     17.676615
   14       19.797811     19.797572
   15       24.468637     24.469171
   16       26.041007     26.051401
 
  0.2105263E+00  0.5263158E-01  0.3742002E-15  0.3499052E-02
    1      -54.444681    -54.446793
    2      -54.436747    -54.438860
    3      -54.436184    -54.438298
    4       -1.037924     -1.037998
    5        5.804143      5.803609
    6        6.167742      6.167113
    7        7.337271      7.337092
    8        7.369442      7.369270
    9        7.668492      7.668327
   10       10.684142     10.683929
   11       14.935858     14.935781
   12       15.662371     15.662376
   13       17.739943     17.739335
   14       20.512017     20.511917
   15       24.798652     24.799219
   16       25.496894     25.717980
 
  0.2631579E+00  0.5263158E-01  0.3742002E-15  0.3499052E-02
    1      -54.447985    -54.450096
    2      -54.436404    -54.438517
    3      -54.435840    -54.437953
    4       -0.595635     -0.595707
    5        5.530421      5.529981
    6        6.244780      6.244155
    7        7.225221      7.225037
    8        7.255913      7.255738
    9        7.683096      7.682933
   10        9.805096      9.804786
   11       15.387626     15.387506
   12       16.185418     16.185407
   13       17.819326     17.818637
   14       21.118949     21.118985
   15       23.627684     23.627797
   16       24.276562     24.276512
 
  0.3157895E+00  0.5263158E-01  0.3742002E-15  0.3499052E-02
    1      -54.451263    -54.453374
    2      -54.435905    -54.438018
    3      -54.435305    -54.437418
    4       -0.063256     -0.063327
    5        5.060173      5.059846
    6        6.322036      6.321416
    7        7.125250      7.125062
    8        7.150881      7.150703
    9        7.697440      7.697278
   10        9.180099      9.179668
   11       15.887450     15.887250
   12       16.793419     16.793380
   13       17.922226     17.921466
   14       21.689843     21.690012
   15       22.541909     22.542097
   16       23.120499     23.120513
 
  0.3684211E+00  0.5263158E-01  0.3742002E-15  0.3499052E-02
    1      -54.454451    -54.456561
    2      -54.435899    -54.438012
    3      -54.435127    -54.437240
    4        0.553333      0.553262
    5        4.402392      4.402162
    6        6.390947      6.390330
    7        7.043374      7.043186
    8        7.063811      7.063631
    9        7.709731      7.709571
   10        8.805774      8.805237
   11       16.393382     16.393037
   12       17.476296     17.476210
   13       18.064260     18.063474
   14       21.541642     21.541942
   15       22.031731     22.031823
   16       22.284280     22.284558
 
  0.4210526E+00  0.5263158E-01  0.3742002E-15  0.3499052E-02
    1      -54.456500    -54.458609
    2      -54.435451    -54.437564
    3      -54.434804    -54.436917
    4        1.245363      1.245293
    5        3.628590      3.628422
    6        6.443448      6.442834
    7        6.984330      6.984145
    8        7.001948      7.001766
    9        7.718895      7.718736
   10        8.615876      8.615270
   11       16.825611     16.825026
   12       18.221365     18.221177
   13       18.277777     18.277034
   14       20.682431     20.682838
   15       21.018706     21.018920
   16       22.895646     22.896300
 
  0.4736842E+00  0.5263158E-01  0.3742002E-15  0.3499052E-02
    1      -54.457797    -54.459906
    2      -54.435502    -54.437616
    3      -54.434891    -54.437004
    4        1.995667      1.995613
    5        2.820446      2.820288
    6        6.471996      6.471381
    7        6.952735      6.952552
    8        6.969853      6.969671
    9        7.723624      7.723465
   10        8.539867      8.539229
   11       17.072249     17.071442
   12       18.540721     18.539963
   13       18.973729     18.973197
   14       20.069477     20.070072
   15       20.133171     20.133739
   16       23.486306     23.489560
 
  0.1052632E+00  0.1052632E+00  0.3742002E-15  0.1749526E-02
    1      -54.438804    -54.440917
    2      -54.438627    -54.440740
    3      -54.436562    -54.438675
    4       -1.485985     -1.486061
    5        6.004764      6.004149
    6        6.051297      6.050671
    7        7.474535      7.474361
    8        7.561465      7.561300
    9        7.601407      7.601235
   10       12.835088     12.834939
   11       13.402250     13.402207
   12       15.112363     15.112382
   13       17.996152     17.995684
   14       19.640043     19.639684
   15       23.975317     23.975908
   16       26.094963     26.094934
 
  0.1578947E+00  0.1052632E+00  0.3742002E-15  0.3499052E-02
    1      -54.441357    -54.443469
    2      -54.438587    -54.440700
    3      -54.436353    -54.438466
    4       -1.236640     -1.236715
    5        5.973623      5.973034
    6        6.094440      6.093820
    7        7.371332      7.371149
    8        7.483290      7.483121
    9        7.600047      7.599877
   10       11.859946     11.859785
   11       13.469553     13.469475
   12       15.427293     15.427309
   13       18.156583     18.156068
   14       20.535331     20.535017
   15       24.731202     24.731410
   16       24.887421     24.887878
 
  0.2105263E+00  0.1052632E+00  0.3742002E-15  0.3499052E-02
    1      -54.444382    -54.446494
    2      -54.438291    -54.440404
    3      -54.436078    -54.438192
    4       -0.890514     -0.890587
    5        5.854136      5.853604
    6        6.163890      6.163275
    7        7.256302      7.256106
    8        7.376813      7.376641
    9        7.612776      7.612607
   10       10.801547     10.801335
   11       13.801844     13.801745
   12       15.850243     15.850254
   13       18.252529     18.251924
   14       21.316900     21.316712
   15       23.617971     23.618430
   16       25.593450     25.666794
 
  0.2631579E+00  0.1052632E+00  0.3742002E-15  0.3499052E-02
    1      -54.447794    -54.449905
    2      -54.437978    -54.440091
    3      -54.435679    -54.437793
    4       -0.450699     -0.450770
    5        5.591225      5.590785
    6        6.244458      6.243848
    7        7.150755      7.150542
    8        7.265459      7.265284
    9        7.627964      7.627797
   10        9.908386      9.908087
   11       14.224566     14.224444
   12       16.369084     16.369085
   13       18.315882     18.315151
   14       21.952956     21.952924
   15       22.539741     22.540047
   16       24.382033     24.382000
 
  0.3157895E+00  0.1052632E+00  0.3742002E-15  0.3499052E-02
    1      -54.451224    -54.453335
    2      -54.437614    -54.439727
    3      -54.435326    -54.437439
    4        0.078378      0.078308
    5        5.134517      5.134187
    6        6.327347      6.326741
    7        7.065959      7.065739
    8        7.161879      7.161700
    9        7.643130      7.642964
   10        9.253337      9.252925
   11       14.713709     14.713551
   12       16.972990     16.972972
   13       18.323146     18.322276
   14       21.543420     21.543898
   15       22.592813     22.592833
   16       23.232061     23.232063
 
  0.3684211E+00  0.1052632E+00  0.3742002E-15  0.3499052E-02
    1      -54.454270    -54.456381
    2      -54.437483    -54.439596
    3      -54.434797    -54.436910
    4        0.690519      0.690450
    5        4.493461      4.493226
    6        6.404164      6.403559
    7        6.998840      6.998626
    8        7.075985      7.075803
    9        7.656349      7.656184
   10        8.844312      8.843790
   11       15.251736     15.251525
   12       17.652807     17.652752
   13       18.211478     18.210523
   14       20.818779     20.819308
   15       22.147804     22.147874
   16       23.159359     23.159499
 
  0.4210526E+00  0.1052632E+00  0.3742002E-15  0.3499052E-02
    1      -54.456561    -54.458671
    2      -54.437354    -54.439467
    3      -54.434834    -54.436947
    4        1.376309      1.376241
    5        3.736064      3.735888
    6        6.465686      6.465080
    7        6.946740      6.946540
    8        7.014734      7.014551
    9        7.666018      7.665853
   10        8.627701      8.627102
   11       15.808034     15.807746
   12       17.921342     17.920464
   13       18.398511     18.398376
   14       20.374044     20.374491
   15       21.135041     21.135213
   16       23.718437     23.720671
 
  0.4736842E+00  0.1052632E+00  0.3742002E-15  0.3499052E-02
    1      -54.457663    -54.459772
    2      -54.437279    -54.439392
    3      -54.434772    -54.436886
    4        2.114890      2.114845
    5        2.945043      2.944871
    6        6.501331      6.500719
    7        6.915894      6.915707
    8        6.982999      6.982815
    9        7.671157      7.670993
   10        8.538428      8.537792
   11       16.276167     16.275789
   12       17.555549     17.554835
   13       19.172586     19.172147
   14       20.191894     20.192219
   15       20.228256     20.228743
   16       24.222496     24.263864
 
  0.1578947E+00  0.1578947E+00  0.3742002E-15  0.1749526E-02
    1      -54.440967    -54.443079
    2      -54.440913    -54.443025
    3      -54.436103    -54.438216
    4       -0.989421     -0.989494
    5        6.017001      6.016419
    6        6.078539      6.077945
    7        7.260843      7.260643
    8        7.468638      7.468473
    9        7.538793      7.538616
   10       11.760501     11.760296
   11       12.639130     12.639068
   12       15.737300     15.737320
   13       18.398622     18.398064
   14       21.524986     21.524614
   15       23.572423     23.572668
   16       25.413965     25.414319
 
  0.2105263E+00  0.1578947E+00  0.3742002E-15  0.3499052E-02
    1      -54.444043    -54.446155
    2      -54.440650    -54.442763
    3      -54.435737    -54.437850
    4       -0.646384     -0.646456
    5        5.932647      5.932118
    6        6.132885      6.132302
    7        7.144660      7.144432
    8        7.385210      7.385040
    9        7.532528      7.532352
   10       10.933888     10.933665
   11       12.710182     12.710092
   12       16.154127     16.154149
   13       18.507344     18.506673
   14       22.365139     22.365296
   15       22.504946     22.504891
   16       25.744735     25.755529
 
  0.2631579E+00  0.1578947E+00  0.3742002E-15  0.3499052E-02
    1      -54.447525    -54.449636
    2      -54.440482    -54.442594
    3      -54.435270    -54.437383
    4       -0.210909     -0.210979
    5        5.684971      5.684533
    6        6.222925      6.222348
    7        7.051019      7.050759
    8        7.279588      7.279412
    9        7.545946      7.545772
   10       10.049705     10.049416
   11       13.081713     13.081606
   12       16.666034     16.666055
   13       18.489482     18.488652
   14       21.445740     21.446303
   15       23.200815     23.200586
   16       24.551458     24.551689
 
  0.3157895E+00  0.1578947E+00  0.3742002E-15  0.3499052E-02
    1      -54.451197    -54.453307
    2      -54.440310    -54.442422
    3      -54.435097    -54.437210
    4        0.312328      0.312260
    5        5.249812      5.249478
    6        6.319200      6.318627
    7        6.987400      6.987126
    8        7.178821      7.178640
    9        7.561598      7.561425
   10        9.358675      9.358283
   11       13.555103     13.554981
   12       17.262673     17.262687
   13       18.248411     18.247499
   14       20.783556     20.784178
   15       23.415030     23.415069
   16       23.798075     23.797852
 
  0.3684211E+00  0.1578947E+00  0.3742002E-15  0.3499052E-02
    1      -54.454166    -54.456276
    2      -54.440182    -54.442294
    3      -54.435017    -54.437130
    4        0.916464      0.916396
    5        4.638080      4.637835
    6        6.412458      6.411885
    7        6.938500      6.938239
    8        7.094662      7.094477
    9        7.575644      7.575471
   10        8.900608      8.900106
   11       14.102028     14.101887
   12       17.718968     17.718175
   13       17.935812     17.935809
   14       20.494550     20.495011
   15       22.341638     22.341674
   16       24.251394     24.251368
 
  0.4210526E+00  0.1578947E+00  0.3742002E-15  0.3499052E-02
    1      -54.456304    -54.458414
    2      -54.440184    -54.442297
    3      -54.434834    -54.436947
    4        1.590695      1.590631
    5        3.910806      3.910616
    6        6.492918      6.492335
    7        6.892353      6.892124
    8        7.034627      7.034440
    9        7.586208      7.586036
   10        8.644113      8.643524
   11       14.706075     14.705917
   12       17.020897     17.020268
   13       18.678621     18.678574
   14       20.446588     20.446833
   15       21.334490     21.334592
   16       24.436592     24.438564
 
  0.4736842E+00  0.1578947E+00  0.3742002E-15  0.3499052E-02
    1      -54.457328    -54.459438
    2      -54.440144    -54.442257
    3      -54.434729    -54.436842
    4        2.306240      2.306207
    5        3.152769      3.152575
    6        6.544626      6.544023
    7        6.857747      6.857552
    8        7.003427      7.003239
    9        7.591836      7.591664
   10        8.534173      8.533540
   11       15.304800     15.304669
   12       16.347098     16.346522
   13       19.476988     19.476750
   14       20.404734     20.405038
   15       20.468303     20.468414
   16       24.381861     24.382181
 
  0.2105263E+00  0.2105263E+00  0.3742002E-15  0.1749526E-02
    1      -54.444038    -54.446150
    2      -54.443662    -54.445774
    3      -54.435474    -54.437588
    4       -0.308018     -0.308088
    5        6.023293      6.022781
    6        6.039523      6.038989
    7        7.035272      7.034995
    8        7.372029      7.371862
    9        7.460433      7.460250
   10       10.802757     10.802496
   11       12.044826     12.044752
   12       16.562908     16.562942
   13       18.543558     18.542754
   14       21.403628     21.404215
   15       23.581104     23.580617
   16       25.760610     25.759626
 
  0.2631579E+00  0.2105263E+00  0.3742002E-15  0.3499052E-02
    1      -54.447151    -54.449262
    2      -54.443481    -54.445593
    3      -54.435007    -54.437120
    4        0.120966      0.120897
    5        5.793461      5.793032
    6        6.149395      6.148874
    7        6.959773      6.959445
    8        7.293751      7.293576
    9        7.451131      7.450949
   10       10.148427     10.148131
   11       12.126899     12.126807
   12       17.065059     17.065105
   13       18.272459     18.271598
   14       20.740451     20.741111
   15       24.497388     24.496841
   16       24.759493     24.762874
 
  0.3157895E+00  0.2105263E+00  0.3742002E-15  0.3499052E-02
    1      -54.450962    -54.453073
    2      -54.443423    -54.445535
    3      -54.435095    -54.437209
    4        0.635198      0.635132
    5        5.389187      5.388851
    6        6.271351      6.270837
    7        6.918166      6.917817
    8        7.199340      7.199157
    9        7.464310      7.464129
   10        9.463231      9.462854
   11       12.517031     12.516928
   12       17.633772     17.633074
   13       17.650400     17.650458
   14       20.527452     20.527943
   15       23.659976     23.660336
   16       25.039800     25.039371
 
  0.3684211E+00  0.2105263E+00  0.3742002E-15  0.3499052E-02
    1      -54.453762    -54.455872
    2      -54.443196    -54.445308
    3      -54.434730    -54.436844
    4        1.226776      1.226711
    5        4.823608      4.823350
    6        6.392591      6.392080
    7        6.884407      6.884073
    8        7.118088      7.117900
    9        7.478906      7.478725
   10        8.960700      8.960218
   11       13.030680     13.030570
   12       16.803160     16.802645
   13       18.310982     18.311050
   14       20.590165     20.590440
   15       22.611550     22.611573
   16       25.011519     25.011214
 
  0.4210526E+00  0.2105263E+00  0.3742002E-15  0.3499052E-02
    1      -54.455942    -54.458052
    2      -54.443039    -54.445151
    3      -54.434563    -54.436676
    4        1.882105      1.882045
    5        4.145253      4.145044
    6        6.505000      6.504478
    7        6.837826      6.837535
    8        7.059529      7.059337
    9        7.490250      7.490069
   10        8.659106      8.658529
   11       13.632431     13.632320
   12       15.944322     15.943918
   13       19.041118     19.041197
   14       20.739782     20.739890
   15       21.624100     21.624105
   16       24.657579     24.657629
 
  0.4736842E+00  0.2105263E+00  0.3742002E-15  0.3499052E-02
    1      -54.456926    -54.459035
    2      -54.442950    -54.445062
    3      -54.434394    -54.436508
    4        2.558141      2.558120
    5        3.443111      3.442890
    6        6.590999      6.590423
    7        6.785060      6.784844
    8        7.029045      7.028852
    9        7.496409      7.496229
   10        8.523896      8.523267
   11       14.294585     14.294530
   12       15.143679     15.143266
   13       19.836779     19.836900
   14       20.700353     20.700330
   15       20.854068     20.854077
   16       24.401114     24.401322
 
  0.2631579E+00  0.2631579E+00  0.3742002E-15  0.1749526E-02
    1      -54.447345    -54.449456
    2      -54.446721    -54.448832
    3      -54.434936    -54.437050
    4        0.540624      0.540557
    5        5.805452      5.805058
    6        6.075561      6.075091
    7        6.905193      6.904802
    8        7.286743      7.286568
    9        7.374778      7.374587
   10        9.981442      9.981116
   11       11.638545     11.638458
   12       17.554315     17.554391
   13       17.608194     17.607531
   14       20.532334     20.532835
   15       24.758316     24.760452
   16       25.566925     25.581496
 
  0.3157895E+00  0.2631579E+00  0.3742002E-15  0.3499052E-02
    1      -54.450639    -54.452750
    2      -54.446745    -54.448857
    3      -54.434815    -54.436928
    4        1.041719      1.041654
    5        5.509601      5.509265
    6        6.175609      6.175164
    7        6.881158      6.880739
    8        7.219251      7.219067
    9        7.365233      7.365043
   10        9.487544      9.487165
   11       11.731305     11.731205
   12       16.710732     16.710277
   13       18.122957     18.123069
   14       20.645971     20.646276
   15       23.927784     23.929864
   16       25.656806     25.716829
 
  0.3684211E+00  0.2631579E+00  0.3742002E-15  0.3499052E-02
    1      -54.453587    -54.455697
    2      -54.446554    -54.448665
    3      -54.434648    -54.436762
    4        1.614339      1.614276
    5        5.025738      5.025462
    6        6.322996      6.322567
    7        6.857317      6.856907
    8        7.143293      7.143101
    9        7.377693      7.377503
   10        8.994815      8.994346
   11       12.120005     12.119895
   12       15.773926     15.773606
   13       18.761714     18.761872
   14       20.889406     20.889567
   15       22.947449     22.947876
   16       25.227247     25.227430
 
  0.4210526E+00  0.2631579E+00  0.3742002E-15  0.3499052E-02
    1      -54.455644    -54.457754
    2      -54.446479    -54.448591
    3      -54.434270    -54.436383
    4        2.239979      2.239923
    5        4.426519      4.426284
    6        6.470814      6.470399
    7        6.807977      6.807592
    8        7.086810      7.086615
    9        7.389421      7.389231
   10        8.660979      8.660415
   11       12.657537     12.657418
   12       14.875976     14.875739
   13       19.461078     19.461315
   14       21.154214     21.154259
   15       22.009603     22.009520
   16       24.722019     24.722004
 
  0.4736842E+00  0.2631579E+00  0.3742002E-15  0.3499052E-02
    1      -54.456520    -54.458629
    2      -54.446225    -54.448337
    3      -54.434187    -54.436300
    4        2.853470      2.853456
    5        3.813569      3.813319
    6        6.606502      6.606077
    7        6.723970      6.723622
    8        7.057042      7.056845
    9        7.395986      7.395796
   10        8.501961      8.501338
   11       13.304722     13.304591
   12       14.048018     14.047826
   13       20.187775     20.188294
   14       21.162649     21.162268
   15       21.336878     21.336847
   16       24.406576     24.406778
 
  0.3157895E+00  0.3157895E+00  0.3742002E-15  0.1749526E-02
    1      -54.450634    -54.452745
    2      -54.449913    -54.452024
    3      -54.434510    -54.436623
    4        1.523727      1.523664
    5        5.482799      5.482473
    6        6.126209      6.125820
    7        6.868495      6.868042
    8        7.220335      7.220150
    9        7.290983      7.290784
   10        9.302399      9.301992
   11       11.380385     11.380271
   12       15.721940     15.721645
   13       18.667380     18.667560
   14       20.932770     20.932954
   15       23.959549     23.959541
   16       24.961702     24.991148
 
  0.3684211E+00  0.3157895E+00  0.3742002E-15  0.3499052E-02
    1      -54.453214    -54.455324
    2      -54.449958    -54.452069
    3      -54.434377    -54.436491
    4        2.067779      2.067718
    5        5.192417      5.192119
    6        6.224337      6.223983
    7        6.851166      6.850713
    8        7.166700      7.166506
    9        7.284126      7.283928