unknown system                          
           1
     2.894763    0.000000    0.000000
     0.000000    2.894763    0.000000
     0.000000    0.000000    2.894763
   Al   Ni
   1   1
unknown system                          
           1
     2.894763    0.000000    0.000000
     0.000000    2.894763    0.000000
     0.000000    0.000000    2.894763
   Al   Ni
   1   1
Direct configuration=     1
   0.00000000  0.00000000  0.00000000
   0.50000000  0.50000000  0.50000000
